<?xml version="1.0"?>
<VTKFile type="UnstructuredGrid"  version="0.1"  >
<UnstructuredGrid>
<Piece  NumberOfPoints="820" NumberOfCells="1464">
<Points>
<DataArray  type="Float64"  NumberOfComponents="3"  format="ascii">0 0.1 0  0 0 0  1 0 0  1 0.1 0  0.5 0 0  0.5 0.1 0  0.25 0 0  0.25 0.1 0  0.75 0.1 0  0.75 0 0  0.375 0.1 0  0.375 0 0  0.125 0 0  0.125 0.1 0  0.625 0 0  0.625 0.1 0  0.875 0.1 0  0.875 0 0  0.6875 0.1 0  0.6875 0 0  0.5625 0 0  0.5625 0.1 0  0.0625 0.1 0  0.0625 0 0  0.1875 0.1 0  0.1875 0 0  0.3125 0 0  0.3125 0.1 0  0.4375 0.1 0  0.4375 0 0  0.8125 0 0  0.8125 0.1 0  0.9375 0.1 0  0.9375 0 0  0.84375 0.05000000000000001 0  0.78125 0.05 0  0.34375 0.05000000000000001 0  0.28125 0.05 0  0.15625 0.05 0  0.21875 0.05000000000000001 0  0 0.05 0  0.09375 0.05000000000000001 0  0.40625 0.05 0  0.46875 0.05000000000000001 0  0.53125 0.05 0  0.59375 0.05000000000000001 0  0.65625 0.05 0  0.71875 0.05000000000000001 0  0.90625 0.05 0  1 0.05 0  0.046875 0.04453125000000001 0  0.953125 0.05546875 0  0.96875 0 0  0.03125 0.1 0  0.03125 0 0  0.96875 0.1 0  1 0.07500000000000001 0  0.875 0.06523437500000001 0  0.8715625 0.03261718750000001 0  0.84375 0 0  0.90625 0.1 0  0.625 0.06523437500000001 0  0.6215625 0.03261718750000001 0  0.59375 0 0  0.6875 0.034765625 0  0.6840625 0.0673828125 0  0.65625 0.1 0  0.71875 0 0  0.5625 0.06523437500000001 0  0.5590625 0.03261718750000001 0  0.53125 0 0  0.65625 0 0  0.59375 0.1 0  0.5 0.06523437500000001 0  0.4965625 0.03261718750000001 0  0.46875 0 0  0.53125 0.1 0  0.4375 0.06523437500000001 0  0.4340625 0.03261718750000001 0  0.40625 0 0  0.46875 0.1 0  0.375 0.06523437500000001 0  0.3715625 0.03261718750000001 0  0.34375 0 0  0.40625 0.1 0  0.09375 0 0  0.09375 0.1 0  0.125 0.06523437500000001 0  0.1215625 0.03261718750000001 0  0.1875 0.034765625 0  0.1840625 0.0673828125 0  0.15625 0.1 0  0.21875 0 0  0.15625 0 0  0.28125 0.1 0  0.3125 0.06523437500000001 0  0.3090625 0.03261718750000001 0  0.28125 0 0  0.25 0.034765625 0  0.2534375 0.0673828125 0  0.21875 0.1 0  0.34375 0.1 0  0.78125 0.1 0  0.8125 0.06523437500000001 0  0.8090625 0.03261718750000001 0  0.78125 0 0  0.75 0.034765625 0  0.7534375 0.0673828125 0  0.71875 0.1 0  0.90625 0 0  0.84375 0.1 0  0.9740776699029127 0.03143583131067961 0  0.921875 0.075 0  0 0.025 0  0.02592233009708738 0.06856416868932039 0  0.0725 0.028515625 0  0.921875 0.025 0  0.078125 0.07500000000000001 0  0.9484670937186905 0.0242372460741816 0  0.05153290628130947 0.07576275392581842 0  0.8963594872172794 0.02643561701079966 0  0.02229817708333334 0.0375 0  0.9777018229166666 0.06250000000000001 0  0.72590087890625 0.025 0  0.8345789124085022 0.025 0  0.22590087890625 0.025 0  0.3345789124085023 0.025 0  0.15996337890625 0.075 0  0.39909912109375 0.075 0  0.4595789124085023 0.025 0  0.52409912109375 0.075 0  0.5845789124085022 0.025 0  0.65996337890625 0.075 0  0.27753662109375 0.075 0  0.77753662109375 0.075 0  0 0.07500000000000001 0  1 0.025 0  0.85090087890625 0.07500000000000001 0  0.77409912109375 0.025 0  0.35090087890625 0.07500000000000001 0  0.27409912109375 0.025 0  0.3970789124085022 0.025 0  0.47590087890625 0.07500000000000001 0  0.5220789124085022 0.025 0  0.60090087890625 0.07500000000000001 0  0.66340087890625 0.025 0  0.16340087890625 0.025 0  0.2095789124085023 0.07500000000000001 0  0.7095789124085022 0.07500000000000001 0  0.0974991439537346 0.02496950333675565 0  0.1029665898617512 0.07685681883640554 0  0.8970334101382489 0.07685681883640554 0  0.7331321502083639 0.0805418246751822 0  0.2331321502083639 0.08054182467518221 0  0.04967773437499999 0.02050781250000001 0  0.9302821601941748 0.04763728762135922 0  0.9453125 0.07773437499999999 0  0.06981448887637284 0.05242311804773303 0  0.703125 0.0173828125 0  0.203125 0.0173828125 0  0.828125 0.08261718750000001 0  0.328125 0.08261718750000001 0  0.4213608787615672 0.08215505604972331 0  0.453125 0.08261718750000001 0  0.5463608787615671 0.08215505604972331 0  0.578125 0.08261718750000001 0  0.6405370048634059 0.0181271643224308 0  0.1405370048634059 0.0181271643224308 0  0.796875 0.1 0  0.296875 0.1 0  0.6389903131525874 0.08261718750000001 0  0.1389903131525873 0.08261718750000001 0  0.796875 0 0  0.296875 0 0  0.359375 0 0  0.421875 0 0  0.484375 0 0  0.546875 0 0  0.609375 0 0  0.859375 0 0  0.984375 0 0  0.015625 0 0  0.9808265015870887 0.08306437698386088 0  0.015625 0.1 0  0.140615310157384 0.03789815460447876 0  0.8258710430305984 0.04237660226422156 0  0.3258710430305984 0.04237660226422154 0  0.4508710430305984 0.04237660226422154 0  0.5758710430305984 0.04237660226422156 0  0.73925254007477 0.05238802290978471 0  0.23925254007477 0.05238802290978471 0  0.19824745992523 0.05238802290978471 0  0.3883710430305984 0.04237660226422155 0  0.5133710430305984 0.04237660226422155 0  0.69824745992523 0.05238802290978471 0  0.6406153101573839 0.03789815460447876 0  0.8875652355519991 0.04398459561477483 0  0.03011990291140283 0.01954869700666445 0  0.2976228417042103 0.07944206017604956 0  0.7976228417042103 0.07944206017604956 0  0.6048261925064409 0.0202852140350185 0  0.8548261925064409 0.0202852140350185 0  0.4173261925064409 0.02028521403501849 0  0.5423261925064409 0.02028521403501849 0  0.479826192506441 0.02028521403501848 0  0.354826192506441 0.02028521403501848 0  0.7612196085333947 0.08469269433495656 0  0.2612196085333947 0.08469269433495656 0  0.671875 0.1 0  0.171875 0.1 0  0.1138156987561534 0.01531102667280419 0  0.1439032206506398 0.06434174268079966 0  0.6439032206506399 0.06434174268079966 0  0.7102169938849521 0.03403655887996306 0  0.2102169938849521 0.03403655887996306 0  0.331272668838501 0.06407394409179688 0  0.8312726688385009 0.06407394409179688 0  0.456272668838501 0.06407394409179688 0  0.5812726688385009 0.06407394409179688 0  0.9626931005513372 0.08290734481438196 0  0.7935362330470901 0.01983307912641665 0  0.2935362330470901 0.01983307912641665 0  0.078125 0 0  0.4143262322415116 0.06583278773374907 0  0.5393262322415115 0.06583278773374907 0  0.6756954193768612 0.08284197013692297 0  0.1756954193768612 0.08284197013692297 0  0.1934564775596677 0.08246105735569852 0  0.6934564775596677 0.0824610573556985 0  0.7948904737904949 0.06168801049385652 0  0.2948904737904949 0.06168801049385652 0  0.42558837890625 0.05 0  0.55058837890625 0.05 0  0.185643310546875 0.0173828125 0  0.685643310546875 0.0173828125 0  0.6085613945093048 0.05928612183988766 0  0.4835613945093048 0.05928612183988766 0  0.3585613945093048 0.05928612183988766 0  0.8585613945093048 0.05928612183988766 0  0.2430157823768409 0.0173828125 0  0.743015782376841 0.0173828125 0  0.11308837890625 0.05 0  0.1710613945093048 0.04071387816011236 0  0.6710613945093048 0.04071387816011236 0  0.2664386054906952 0.04071387816011236 0  0.7664386054906952 0.04071387816011236 0  0.1200872144236349 0.08261718750000001 0  0.618015782376841 0.08261718750000001 0  0.4930157823768409 0.08261718750000001 0  0.3680157823768409 0.08261718750000001 0  0.868015782376841 0.08261718750000001 0  0.515625 0.1 0  0.390625 0.1 0  0.265625 0 0  0.765625 0 0  0.516365031953596 0.05946768293606444 0  0.3913650319535959 0.05946768293606444 0  0.8926135952226929 0.06033018746614476 0  0.171875 0 0  0.671875 0 0  0.890625 0 0  0.8808652108632187 0.0171078614816925 0  0.2274441083295474 0.06456313374723947 0  0.7274441083295474 0.06456313374723946 0  0.9350285939903868 0.06406852472525566 0  0.453125 0 0  0.4433265752246126 0.01710378970181546 0  0.328125 0 0  0.3183265752246126 0.01710378970181546 0  0.578125 0 0  0.5683265752246126 0.01710378970181545 0  0.828125 0 0  0.8183265752246126 0.01710378970181545 0  0.515625 0 0  0.5058265752246126 0.01710378970181545 0  0.390625 0 0  0.3808265752246126 0.01710378970181545 0  0.01564771141956889 0.08260299286276945 0  0.9843522885804311 0.01739700713723054 0  0.3551736619148977 0.03733645281383641 0  0.4801736619148977 0.03733645281383641 0  0.8551736619148977 0.03733645281383642 0  0.7687346279121444 0.06091681090943113 0  0.2687346279121444 0.06091681090943113 0  0.6687653720878556 0.06091681090943113 0  0.1687653720878556 0.06091681090943113 0  0.6051736619148977 0.03733645281383642 0  0.2924478939734164 0.03697522410746614 0  0.7924478939734163 0.03697522410746614 0  0.8719142286486647 0.04906985056606887 0  0.6274213820068905 0.04848945596065109 0  0.4983341418505795 0.04892020701904073 0  0.3733341418505795 0.04892020701904073 0  0.3108341418505795 0.04892020701904073 0  0.8108341418505794 0.04892020701904073 0  0.6242024164762008 0.01640567476785111 0  0.3848561971730207 0.08410836408489761 0  0.5098561971730207 0.08410836408489761 0  0.2598561971730207 0.01589163591510238 0  0.7598561971730207 0.01589163591510238 0  0.890625 0.1 0  0.9582054159658413 0.03874795528975266 0  0.03565822065430611 0.08308352918541601 0  0.9643417793456939 0.016916470814584 0  0 0.0625 0  0.0168287001921521 0.05388159890776699 0  0.0417945840341587 0.06125204471024735 0  0.9831712998078479 0.04611840109223304 0  0.5622607296296599 0.08116332765030569 0  0.4372607296296599 0.08116332765030566 0  0.046875 0.1 0  0.953125 0 0  0.415919189453125 0.03668247284720479 0  0.540919189453125 0.03668247284720479 0  0.0859375 0.01393925506164327 0  0.109375 0.1 0  0.1338555271916189 0.05216484236021472 0  0.953125 0.1 0  0.140625 0 0  0.640625 0 0  0.546875 0.1 0  0.421875 0.1 0  0.203125 0 0  0.703125 0 0  0.046875 0 0  0.234375 0.1 0  0.734375 0.1 0  0.078125 0.1 0  0.921875 0 0  0.921875 0.1 0  0.828125 0.1 0  0.328125 0.1 0  0.453125 0.1 0  0.578125 0.1 0  0.640625 0.1 0  0.140625 0.1 0  0.984375 0.1 0  0.765625 0.1 0  0.265625 0.1 0  0.109375 0 0  0.203125 0.1 0  0.703125 0.1 0  0.234375 0 0  0.734375 0 0  0.609375 0.1 0  0.484375 0.1 0  0.359375 0.1 0  0.859375 0.1 0  0.03162846341645094 0.04971906156616034 0  0.9677597279973049 0.05078312969016881 0  0.8125319459969864 0.08431483734279674 0  0.3125319459969864 0.08431483734279674 0  0.01533347852251798 0.02378565849770013
[...]
<PointData  Vectors="damage"> 
<DataArray  type="Float64"  Name="damage"  NumberOfComponents="3" format="ascii">0.0000000000000000e+00 0.0000000000000000e+00 0.0000000000000000e+00  0.0000000000000000e+00 0.0000000000000000e+00 0.0000000000000000e+00  2.4080929626391295e-01 0.0000000000000000e+00 0.0000000000000000e+00  2.4080929626391295e-01 0.0000000000000000e+00 0.0000000000000000e+00  1.2039912787503897e-01 3.7007374076618946e-03 0.0000000000000000e+00  1.2040901978918238e-01 -3.5444434057795675e-03 0.0000000000000000e+00  6.0033267077457701e-02 3.7032692772629447e-03 0.0000000000000000e+00  6.0021854518195888e-02 -3.5417222277458553e-03 0.0000000000000000e+00  1.8078819097714643e-01 -3.5803004703303235e-03 0.0000000000000000e+00  1.8077298650167603e-01 3.6647005450532832e-03 0.0000000000000000e+00  9.0216448263059093e-02 -3.5364684506496713e-03 0.0000000000000000e+00  9.0215215730001908e-02 3.7087157190896516e-03 0.0000000000000000e+00  2.9853661934573558e-02 3.6965392033703353e-03 0.0000000000000000e+00  2.9826025022904653e-02 -3.5822455215782818e-03 0.0000000000000000e+00  1.5058504644177043e-01 3.6844321076391160e-03 0.0000000000000000e+00  1.5059958788254207e-01 -3.5607508795585784e-03 0.0000000000000000e+00  2.1097452769391287e-01 -3.6156702369673573e-03 0.0000000000000000e+00  2.1096175460022654e-01 3.6641682833246417e-03 0.0000000000000000e+00  1.6569411907880896e-01 -3.5704604275441469e-03 0.0000000000000000e+00  1.6567874056037918e-01 3.6747088158293781e-03 0.0000000000000000e+00  1.3549183563843167e-01 3.6933125217613093e-03 0.0000000000000000e+00  1.3550455235078621e-01 -3.5518677657979916e-03 0.0000000000000000e+00  1.4923756872397146e-02 -3.5779516527008554e-03 0.0000000000000000e+00  1.4952022752690261e-02 3.6579523503374543e-03 0.0000000000000000e+00  4.4922686905664928e-02 -3.5515784785427637e-03 0.0000000000000000e+00  4.4941950718988204e-02 3.6945431244444341e-03 0.0000000000000000e+00  7.5124011940990609e-02 3.7080106073032314e-03 0.0000000000000000e+00  7.5119408848200175e-02 -3.5371593091226791e-03 0.0000000000000000e+00  1.0531297618518905e-01 -3.5390991505662808e-03 0.0000000000000000e+00  1.0530692103349408e-01 3.7060822593683821e-03 0.0000000000000000e+00  1.9586887428411739e-01 3.6556938537887795e-03 0.0000000000000000e+00  1.9588288356087388e-01 -3.5903019413490362e-03 0.0000000000000000e+00  2.2587414552863266e-01 -3.6070409809461799e-03 0.0000000000000000e+00  2.2585882450265227e-01 3.6332502194495624e-03 0.0000000000000000e+00  2.0342148328505841e-01 2.8136868872553410e-05 0.0000000000000000e+00  1.8832732089238999e-01 3.7283132684930312e-05 0.0000000000000000e+00  8.2668771156457571e-02 8.6586751750037898e-05 0.0000000000000000e+00  6.7574656952171352e-02 8.4067253201674207e-05 0.0000000000000000e+00  3.7386448100537456e-02 6.5806451106503321e-05 0.0000000000000000e+00  5.2480805580675589e-02 7.7238453940531833e-05 0.0000000000000000e+00  0.0000000000000000e+00 0.0000000000000000e+00 0.0000000000000000e+00  2.2244423276179384e-02 4.9674742902086852e-05 0.0000000000000000e+00  9.7762910086987148e-02 8.5472571609960927e-05 0.0000000000000000e+00  1.1285701305413855e-01 8.1351303951003487e-05 0.0000000000000000e+00  1.2795114481849168e-01 7.4824395790272654e-05 0.0000000000000000e+00  1.4304525457145603e-01 6.6535540337343539e-05 0.0000000000000000e+00  1.5813937802409456e-01 5.7098375418619173e-05 0.0000000000000000e+00  1.7323349273975536e-01 4.7138081225786508e-05 0.0000000000000000e+00  2.1856553010047053e-01 1.9906668680750042e-05 0.0000000000000000e+00  2.4080929626391295e-01 0.0000000000000000e+00 0.0000000000000000e+00  1.0775332967497010e-02 4.0175365419285259e-04 0.0000000000000000e+00  2.3004890066775829e-01 -3.5409191266677918e-04 0.0000000000000000e+00  2.3300899086516733e-01 3.1443731314468358e-03 0.0000000000000000e+00  7.7544401290814101e-03 -3.0694246193315035e-03 0.0000000000000000e+00  7.8323272372046154e-03 3.1276400599930271e-03 0.0000000000000000e+00  2.3302517561474789e-01 -3.0715015780254261e-03 0.0000000000000000e+00  2.4080929626391295e-01 0.0000000000000000e+00 0.0000000000000000e+00  2.1097571732584752e-01 -1.0899368298483245e-03 0.0000000000000000e+00  2.1014027637997459e-01 1.2940401075340296e-03 0.0000000000000000e+00  2.0341788420000462e-01 3.6551410286609957e-03 0.0000000000000000e+00  2.1848279851506827e-01 -3.6430609209881152e-03 0.0000000000000000e+00  1.5059449579201845e-01 -1.0418459944110624e-03 0.0000000000000000e+00  1.4975966101050395e-01 1.3218446081303028e-03 0.0000000000000000e+00  1.4303838531590371e-01 3.6890136864917416e-03 0.0000000000000000e+00  1.6568413068249296e-01 1.1558976432636783e-03 0.0000000000000000e+00  1.6485889310995699e-01 -1.2067239227818783e-03 0.0000000000000000e+00  1.5814691731640312e-01 -3.5655406105777332e-03 0.0000000000000000e+00  1.7322577815545559e-01 3.6697075177559569e-03 0.0000000000000000e+00  1.3550009931870549e-01 -1.0329074837101943e-03 0.0000000000000000e+00  1.3466586668768857e-01 1.3307121217272738e-03 0.0000000000000000e+00  1.2794543132225572e-01 3.6972452469013865e-03 0.0000000000000000e+00  1.5813182885778185e-01 3.6796367239778117e-03 0.0000000000000000e+00  1.4305213368418165e-01 -3.5561605859330643e-03 0.0000000000000000e+00  1.2040554443439784e-01 -1.0254312078442024e-03 0.0000000000000000e+00  1.1957225362041539e-01 1.3380908410476331e-03 0.0000000000000000e+00  1.1285297295477338e-01 3.7036938792664310e-03 0.0000000000000000e+00  1.2795683810914643e-01 -3.5479296025918384e-03 0.0000000000000000e+00  1.0531084533551952e-01 -1.0200287616051952e-03 0.0000000000000000e+00  1.0447880140332647e-01 1.3433521689549452e-03 0.0000000000000000e+00  9.7761026030348086e-02 3.7077739470087294e-03 0.0000000000000000e+00  1.1286106602140454e-01 -3.5414601872387039e-03 0.0000000000000000e+00  9.0215981830894409e-02 -1.0173469405421265e-03 0.0000000000000000e+00  8.9385538980778043e-02 1.3458709346703601e-03 0.0000000000000000e+00  8.2669569672861182e-02 3.7087947830249826e-03 0.0000000000000000e+00  9.7764759888768205e-02 -3.5373979957239034e-03 0.0000000000000000e+00  2.2347356002617478e-02 3.7092257688910580e-03 0.0000000000000000e+00  2.2316823813147615e-02 -3.6120863540664351e-03 0.0000000000000000e+00  2.9830009241506802e-02 -1.0561324828642679e-03 0.0000000000000000e+00  2.9009555330307066e-02 1.3289642003287926e-03 0.0000000000000000e+00  4.4936978195076221e-02 1.1759372792082682e-03 0.0000000000000000e+00  4.4100327320028769e-02 -1.1884441355982567e-03 0.0000000000000000e+00  3.7372085073455512e-02 -3.5616058566813619e-03 0.0000000000000000e+00  5.2487863422019922e-02 3.6992334966888048e-03 0.0000000000000000e+00  3.7395507350175841e-02 3.6915484375822454e-03 0.0000000000000000e+00  6.7570693311538407e-02 -3.5389106393123519e-03 0.0000000000000000e+00  7.5120976431031647e-02 -1.0179948697790807e-03 0.0000000000000000e+00  7.4292439938047114e-02 1.3450112397355408e-03 0.0000000000000000e+00  6.7578616197647157e-02 3.7062031468264611e-03 0.0000000000000000e+00  6.0029401823332329e-02 1.1848816019533145e-03 0.0000000000000000e+00  6.0855858273792980e-02 -1.1778304162788212e-03 0.0000000000000000e+00  5.2472571450804043e-02 -3.5457098791942124e-03 0.0000000000000000e+00  8.2667997651467942e-02 -3.5363432173788453e-03 0.0000000000000000e+00  1.8833526470123599e-01 -3.5850770430076078e-03 0.0000000000000000e+00  1.9587623993849693e-01 -1.0713355472221813e-03 0.0000000000000000e+00  1.9504164210957239e-01 1.2926425535587256e-03 0.0000000000000000e+00  1.8832052635022944e-01 3.6597932352841838e-03 0.0000000000000000e+00  1.8077823130139856e-01 1.1458592294691426e-03 0.0000000000000000e+00  1.8161328879631691e-01 -1.2177179697121984e-03 0.0000000000000000e+00  1.7324119697436038e-01 -3.5754138239898637e-03 0.0000000000000000e+00  2.1847174277502415e-01 3.6840947296673063e-03 0.0000000000000000e+00  2.0343112092313700e-01 -3.5983513261605127e-03 0.0000000000000000e+00  2.3501961052785003e-01 8.8919343798916299e-04 0.0000000000000000e+00  2.2231004668346596e-01 -1.8405101727384744e-03 0.0000000000000000e+00  0.0000000000000000e+00 0.0000000000000000e+00 0.0000000000000000e+00  5.8130996742897147e-03 -8.9827889683395245e-04 0.0000000000000000e+00  1.7121726409830226e-02 1.6352021094207380e-03 0.0000000000000000e+00  2.2230838352065641e-01 1.8778015904603617e-03 0.0000000000000000e+00  1.8488267914590087e-02 -1.8105839875688023e-03 0.0000000000000000e+00  2.2875728791138036e-01 1.8405173069846411e-03 0.0000000000000000e+00  1.2034426330350975e-02 -1.7867319704052925e-03 0.0000000000000000e+00  2.1613171595476754e-01 1.7591140712279278e-03 0.0000000000000000e+00  4.8914231555811918e-03 5.4653544746974562e-04 0.0000000000000000e+00  2.3593552577171120e-01 -5.3246605012377817e-04 0.0000000000000000e+00  1.7495667217888192e-01 1.8572594565426036e-03 0.0000000000000000e+00  2.0120332111045686e-01 1.8425646846781240e-03 0.0000000000000000e+00  5.4211184865415159e-02 1.8892909882267527e-03 0.0000000000000000e+00  8.0454555716587675e-02 1.8976602637166512e-03 0.0000000000000000e+00  3.8277741960664101e-02 -1.7476747537148059e-03 0.0000000000000000e+00  9.6036661519598041e-02 -1.7255866973894655e-03 0.0000000000000000e+00  1.1064030524489356e-01 1.8933632990418092e-03 0.0000000000000000e+00  1.2622687881716690e-01 -1.7356553007711495e-03 0.0000000000000000e+00  1.4082705831433051e-01 1.8791072773232027e-03 0.0000000000000000e+00  1.5903991646014640e-01 -1.7547918950435273e-03 0.0000000000000000e+00  6.6675720008980671e-02 -1.7276050721751291e-03 0.0000000000000000e+00  1.8743442564513679e-01 -1.7732582997317279e-03 0.0000000000000000e+00  0.0000000000000000e+00 0.0000000000000000e+00 0.0000000000000000e+00  2.4080929626391295e-01 0.0000000000000000e+00 0.0000000000000000e+00  2.0515144154267362e-01 -1.7891795902849983e-03 0.0000000000000000e+00  1.8659691270116202e-01 1.8495373162194619e-03 0.0000000000000000e+00  8.4395484756424430e-02 -1.7247450342944869e-03 0.0000000000000000e+00  6.5849900292522023e-02 1.8946637818796279e-03 0.0000000000000000e+00  9.5547306371041002e-02 1.8970652482387896e-03 0.0000000000000000e+00  1.1458608301302899e-01 -1.7306328108210036e-03 0.0000000000000000e+00  1.2573355838945574e-01 1.8871608399678203e-03 0.0000000000000000e+00  1.4477568066794153e-01 -1.7458156209723982e-03 0.0000000000000000e+00  1.5986260746568529e-01 1.8672565606796514e-03 0.0000000000000000e+00  3.9119416102529475e-02 1.8804991140637833e-03 0.0000000000000000e+00  5.0261617636745727e-02 -1.7354283128181659e-03 0.0000000000000000e+00  1.7102243934741393e-01 -1.7626716912144172e-03 0.0000000000000000e+00  2.3198338256805905e-02 1.9002424362886780e-03 0.0000000000000000e+00  2.4506733915789468e-02 -1.9275847407218905e-03 0.0000000000000000e+00  2.1629399512746397e-01 -1.9581641921341403e-03 0.0000000000000000e+00  1.7671151650821104e-01 -2.1679113322985370e-03 0.0000000000000000e+00  5.5949718913599331e-02 -2.1336045477495262e-03 0.0000000000000000e+00  1.1662627994840287e-02 2.0963986128932854e-03 0.0000000000000000e+00  2.2444820178896377e-01 1.9088938045465999e-04 0.0000000000000000e+00  2.2796614404725118e-01 -1.9757220596010806e-03 0.0000000000000000e+00  1.6389576530036813e-02 -1.3880765035054980e-04 0.0000000000000000e+00  1.6945497627471801e-01 2.4128026785195668e-03 0.0000000000000000e+00  4.8712536230075570e-02 2.4376693383966171e-03 0.0000000000000000e+00  1.9965280263320939e-01 -2.3341378509387214e-03 0.0000000000000000e+00  7.8894198411026156e-02 -2.2770144679988241e-03 0.0000000000000000e+00  1.0141377722552725e-01 -2.2450726208059239e-03 0.0000000000000000e+00  1.0908575916183388e-01 -2.2806452197724723e-03 0.0000000000000000e+00  1.3160433289403839e-01 -2.2567941494691761e-03 0.0000000000000000e+00  1.3927600595015363e-01 -2.2944867766075249e-03 0.0000000000000000e+00  1.5433990717747423e-01 2.3687637816292217e-03 0.0000000000000000e+00  3.3600445196279034e-02 2.3793564517331596e-03 0.0000000000000000e+00  1.9210895152554514e-01 -3.5875334538950946e-03 0.0000000000000000e+00  7.1345055634799023e-02 -3.5379194959580208e-03 0.0000000000000000e+00  1.5397584544007820e-01 -2.3034211418422328e-03 0.0000000000000000e+00  3.3210206156602945e-02 -2.3112345152374648e-03 0.0000000000000000e+00  1.9209456506817263e-01 3.6575281562904365e-03 0.0000000000000000e+00  7.1351300555254252e-02 3.7072512664182082e-03 0.0000000000000000e+00  8.6442375803454527e-02 3.7088776022377317e-03 0.0000000000000000e+00  1.0153395186625636e-01 3.7070200521270081e-03 0.0000000000000000e+00  1.1662603327030907e-01 3.7022932364776484e-03 0.0000000000000000e+00  1.3171861368267418e-01 3.6953299597746354e-03 0.0000000000000000e+00  1.4681169622228205e-01 3.6867532291798566e-03 0.0000000000000000e+00  2.0719153013619351e-01 3.6578844823320360e-03 0.0000000000000000e+00  2.3653054042575694e-01 2.1835702757637115e-03 0.0000000000000000e+00  4.2636983753011944e-03 2.2971113252818762e-03 0.0000000000000000e+00  2.3649409200407237e-01 -1.3754304947539671e-03 0.0000000000000000e+00  4.1371440571062830e-03 -2.1166156072031520e-03 0.0000000000000000e+00  3.3612149405528390e-02 9.4301034204176144e-04 0.0000000000000000e+00  1.9910205299211167e-01 5.8327813616822438e-04 0.0000000000000000e+00  7.8351166785719781e-02 6.3857294134849862e-04 0.0000000000000000e+00  1.0853861678909457e-01 6.3512534831988460e-04 0.0000000000000000e+00  1.3872638820184208e-01 6.2137667569691734e-04 0.0000000000000000e+00  1.7818531043526478e-01 -1.2914421910058729e-04 0.0000000000000000e+00  5.7431828443097799e-02 -9.3021604288024028e-05 0.0000000000000000e+00  4.7529169249254974e-02 -9.9053961025607362e-05 0.0000000000000000e+00  9.3444859624592369e-02 6.3844926019505303e-04 0.0000000000000000e+00  1.2363247344499598e-01 6.2922439875763092e-04 0.0000000000000000e+00  1.6828237721724515e-01 -1.2259077736869278e-04 0.0000000000000000e+00  1.5436173942964834e-01 9.3632813872558240e-04 0.0000000000000000e+00  2.1402070977381030e-01 4.6529671542161786e-04 0.0000000000000000e+00  6.9513765396360377e-03 1.7573772649428390e-03 0.0000000000000000e+00  7.1526927396439857e-02 -2.0481505239963063e-03 0.0000000000000000e+00  1.9228596810106605e-01 -2.0981823045504214e-03 0.0000000000000000e+00  1.4571608800070585e-01 2.2177839157798977e-03 0.0000000000000000e+00  2.0609283274382093e-01 2.1862897266832042e-03 0.0000000000000000e+00  1.0043653617542429e-01 2.2377426704903365e-03 0.0000000000000000e+00  1.3062260611060683e-01 2.2263040512292944e-03 0.0000000000000000e+00  1.1552942339264860e-01 2.2331631910790331e-03 0.0000000000000000e+00  8.5343947807359266e-02 2.2394055329151685e-03 0.0000000000000000e+00  1.8349538775868021e-01 -2.4729998184797050e-03 0.0000000000000000e+00  6.2733613580046685e-02 -2.4313504464171507e-03 0.0000000000000000e+00  1.6192053308027893e-01 -3.5679908128149040e-03 0.0000000000000000e+00  4.1147412377167375e-02 -3.5556422299799747e-03 0.0000000000000000e+00  2.7153364506914596e-02 2.5935696835262404e-03 0.0000000000000000e+00  3.4400184666890460e-02 -9.8058283720833393e-04 0.0000000000000000e+00  1.5515965947346999e-01 -9.8006854969262774e-04 0.0000000000000000e+00  1.7117029506141071e-01 1.2050758534317711e-03 0.0000000000000000e+00  5.0422663076171576e-02 1.2323710922922497e-03 0.0000000000000000e+00  7.9655006138260639e-02 -9.3333119630493024e-04 0.0000000000000000e+00  2.0040965923815232e-01 -9.9084055942718209e-04 0.0000000000000000e+00  1.0984466421655062e-01 -9.3732016818136343e-04 0.0000000000000000e+00  1.4003375637591881e-01 -9.5139184099624140e-04 0.0000000000000000e+00  2.3207771883048803e-01 -2.0929316984953663e-03 0.0000000000000000e+00  1.9129051975838476e-01 2.2209492155196649e-03 0.0000000000000000e+00  7.0543882088741641e-02 2.2703529519200482e-03 0.0000000000000000e+00  1.8627542765973948e-02 3.7025463755563930e-03 0.0000000000000000e+00  9.9714006504115854e-02 -1.0620363886577899e-03 0.0000000000000000e+00  1.2990342125976226e-01 -1.0732847536189167e-03 0.0000000000000000e+00  1.6284053807254156e-01 -2.3254472269184550e-03 0.0000000000000000e+00  4.2075493291754459e-02 -2.3109074800435957e-03 0.0000000000000000e+00  4.6365767642771435e-02 -2.2790340551597879e-03 0.0000000000000000e+00  1.6712991633525628e-01 -2.3006689753716971e-03 0.0000000000000000e+00  1.9162314878721698e-01 -8.1154102803210077e-04 0.0000000000000000e+00  7.0868124828726328e-02 -7.6189311921019611e-04 0.0000000000000000e+00  1.0243322432097575e-01 8.4487271730748030e-05 0.0000000000000000e+00  1.3262146655076112e-01 7.2417614196711863e-05 0.0000000000000000e+00  4.4491324500000519e-02 2.4350163373330611e-03 0.0000000000000000e+00  1.6523306698415041e-01 2.4156013136237805e-03 0.0000000000000000e+00  1.4662358597862687e-01 -6.0841889921877377e-04 0.0000000000000000e+00  1.1643486484017329e-01 -5.9280006158595117e-04 0.0000000000000000e+00  8.6245769517310236e-02 -5.8617057921385061e-04 0.0000000000000000e+00  2.0700105269033015e-01 -6.4988285401799939e-04 0.0000000000000000e+00  5.8344888219671188e-02 2.4432919635775444e-03 0.0000000000000000e+00  1.7908889362473118e-01 2.4063765570551446e-03 0.0000000000000000e+00  2.6945046816273743e-02 5.4699358606698101e-05 0.0000000000000000e+00  4.0966157656193602e-02 7.4218323561142891e-04 0.0000000000000000e+00  1.6171502358203929e-01 7.2755598622977467e-04 0.0000000000000000e+00  6.3998541379554186e-02 7.5561542503852028e-04 0.0000000000000000e+00  1.8474907207336741e-01 7.1231312873688021e-04 0.0000000000000000e+00  2.8645228978129943e-02 -2.3276721690013787e-03 0.0000000000000000e+00  1.4891023608039058e-01 -2.3002410905254866e-03 0.0000000000000000e+00  1.1872040005315464e-01 -2.2841976229146669e-03 0.0000000000000000e+00  8.8529259192784704e-02 -2.2767670890088696e-03 0.0000000000000000e+00  2.0928436467180508e-01 -2.3510389479415887e-03 0.0000000000000000e+00  1.2418294019486351e-01 -3.5461195851493790e-03 0.0000000000000000e+00  9.3990612826707051e-02 -3.5368231039544554e-03 0.0000000000000000e+00  6.3805945112881346e-02 3.7048873405904625e-03 0.0000000000000000e+00  1.8454669577290550e-01 3.6622150548765850e-03 0.0000000000000000e+00  1.2435731925976383e-01 -6.0939567365438498e-04 0.0000000000000000e+00  9.4168306796266171e-02 -5.9992897408504841e-04 0.0000000000000000e+00  2.1524335544009340e-01 -7.3934653259922123e-04 0.0000000000000000e+00  4.1168661124298074e-02 3.6925617940825159e-03 0.0000000000000000e+00  1.6190527245718755e-01 3.6771871691752001e-03 0.0000000000000000e+00  2.1472597072593216e-01 3.6729627499480391e-03 0.0000000000000000e+00  2.1237764527988406e-01 2.4282806972859301e-03 0.0000000000000000e+00  5.4578263646524273e-02 -9.7660237074999648e-04 0.0000000000000000e+00  1.7533537593604345e-01 -1.0093537562085037e-03 0.0000000000000000e+00  2.2557379728298713e-01 -1.0247176699064587e-03 0.0000000000000000e+00  1.0907993965356610e-01 3.7049511633666854e-03 0.0000000000000000e+00  1.0671502873137328e-01 2.4666348765876363e-03 0.0000000000000000e+00  7.8896787026321982e-02 3.7084969168463444e-03 0.0000000000000000e+00  7.6530235656267279e-02 2.4692503137735038e-03 0.0000000000000000e+00  1.3926509846841470e-01 3.6911914024302475e-03 0.0000000000000000e+00  1.3690114056536273e-01 2.4534138169075631e-03 0.0000000000000000e+00  1.9964333888495517e-01 3.6547281499309785e-03 0.0000000000000000e+00  1.9727752490074385e-01 2.4157483240346092e-03 0.0000000000000000e+00  1.2417226899249305e-01 3.6990327564233715e-03 0.0000000000000000e+00  1.2180791966744699e-01 2.4610357497781813e-03 0.0000000000000000e+00  9.3988112990592731e-02 3.7083144042726014e-03 0.0000000000000000e+00  9.1622465942059958e-02 2.4695825262453079e-03 0.0000000000000000e+00  3.5046170833000147e-03 -1.1307187795304044e-03 0.0000000000000000e+00  2.3733975785132463e-01 1.0595941309762289e-03 0.0000000000000000e+00  8.5427754366160194e-02 1.0041031386917015e-03 0.0000000000000000e+00  1.1561481834651874e-01 9.9779653137428682e-04 0.0000000000000000e+00  2.0617979241309681e-01 9.4807131366679510e-04 0.0000000000000000e+00  1.8530654940492197e-01 -7