<?xml version="1.0"?>
<VTKFile type="UnstructuredGrid"  version="0.1"  >
<UnstructuredGrid>
<Piece  NumberOfPoints="820" NumberOfCells="1464">
<Points>
<DataArray  type="Float64"  NumberOfComponents="3"  format="ascii">0 0.1 0  0 0 0  1 0 0  1 0.1 0  0.5 0 0  0.5 0.1 0  0.25 0 0  0.25 0.1 0  0.75 0.1 0  0.75 0 0  0.375 0.1 0  0.375 0 0  0.125 0 0  0.125 0.1 0  0.625 0 0  0.625 0.1 0  0.875 0.1 0  0.875 0 0  0.6875 0.1 0  0.6875 0 0  0.5625 0 0  0.5625 0.1 0  0.0625 0.1 0  0.0625 0 0  0.1875 0.1 0  0.1875 0 0  0.3125 0 0  0.3125 0.1 0  0.4375 0.1 0  0.4375 0 0  0.8125 0 0  0.8125 0.1 0  0.9375 0.1 0  0.9375 0 0  0.84375 0.05000000000000001 0  0.78125 0.05 0  0.34375 0.05000000000000001 0  0.28125 0.05 0  0.15625 0.05 0  0.21875 0.05000000000000001 0  0 0.05 0  0.09375 0.05000000000000001 0  0.40625 0.05 0  0.46875 0.05000000000000001 0  0.53125 0.05 0  0.59375 0.05000000000000001 0  0.65625 0.05 0  0.71875 0.05000000000000001 0  0.90625 0.05 0  1 0.05 0  0.046875 0.04453125000000001 0  0.953125 0.05546875 0  0.96875 0 0  0.03125 0.1 0  0.03125 0 0  0.96875 0.1 0  1 0.07500000000000001 0  0.875 0.06523437500000001 0  0.8715625 0.03261718750000001 0  0.84375 0 0  0.90625 0.1 0  0.625 0.06523437500000001 0  0.6215625 0.03261718750000001 0  0.59375 0 0  0.6875 0.034765625 0  0.6840625 0.0673828125 0  0.65625 0.1 0  0.71875 0 0  0.5625 0.06523437500000001 0  0.5590625 0.03261718750000001 0  0.53125 0 0  0.65625 0 0  0.59375 0.1 0  0.5 0.06523437500000001 0  0.4965625 0.03261718750000001 0  0.46875 0 0  0.53125 0.1 0  0.4375 0.06523437500000001 0  0.4340625 0.03261718750000001 0  0.40625 0 0  0.46875 0.1 0  0.375 0.06523437500000001 0  0.3715625 0.03261718750000001 0  0.34375 0 0  0.40625 0.1 0  0.09375 0 0  0.09375 0.1 0  0.125 0.06523437500000001 0  0.1215625 0.03261718750000001 0  0.1875 0.034765625 0  0.1840625 0.0673828125 0  0.15625 0.1 0  0.21875 0 0  0.15625 0 0  0.28125 0.1 0  0.3125 0.06523437500000001 0  0.3090625 0.03261718750000001 0  0.28125 0 0  0.25 0.034765625 0  0.2534375 0.0673828125 0  0.21875 0.1 0  0.34375 0.1 0  0.78125 0.1 0  0.8125 0.06523437500000001 0  0.8090625 0.03261718750000001 0  0.78125 0 0  0.75 0.034765625 0  0.7534375 0.0673828125 0  0.71875 0.1 0  0.90625 0 0  0.84375 0.1 0  0.9740776699029127 0.03143583131067961 0  0.921875 0.075 0  0 0.025 0  0.02592233009708738 0.06856416868932039 0  0.0725 0.028515625 0  0.921875 0.025 0  0.078125 0.07500000000000001 0  0.9484670937186905 0.0242372460741816 0  0.05153290628130947 0.07576275392581842 0  0.8963594872172794 0.02643561701079966 0  0.02229817708333334 0.0375 0  0.9777018229166666 0.06250000000000001 0  0.72590087890625 0.025 0  0.8345789124085022 0.025 0  0.22590087890625 0.025 0  0.3345789124085023 0.025 0  0.15996337890625 0.075 0  0.39909912109375 0.075 0  0.4595789124085023 0.025 0  0.52409912109375 0.075 0  0.5845789124085022 0.025 0  0.65996337890625 0.075 0  0.27753662109375 0.075 0  0.77753662109375 0.075 0  0 0.07500000000000001 0  1 0.025 0  0.85090087890625 0.07500000000000001 0  0.77409912109375 0.025 0  0.35090087890625 0.07500000000000001 0  0.27409912109375 0.025 0  0.3970789124085022 0.025 0  0.47590087890625 0.07500000000000001 0  0.5220789124085022 0.025 0  0.60090087890625 0.07500000000000001 0  0.66340087890625 0.025 0  0.16340087890625 0.025 0  0.2095789124085023 0.07500000000000001 0  0.7095789124085022 0.07500000000000001 0  0.0974991439537346 0.02496950333675565 0  0.1029665898617512 0.07685681883640554 0  0.8970334101382489 0.07685681883640554 0  0.7331321502083639 0.0805418246751822 0  0.2331321502083639 0.08054182467518221 0  0.04967773437499999 0.02050781250000001 0  0.9302821601941748 0.04763728762135922 0  0.9453125 0.07773437499999999 0  0.06981448887637284 0.05242311804773303 0  0.703125 0.0173828125 0  0.203125 0.0173828125 0  0.828125 0.08261718750000001 0  0.328125 0.08261718750000001 0  0.4213608787615672 0.08215505604972331 0  0.453125 0.08261718750000001 0  0.5463608787615671 0.08215505604972331 0  0.578125 0.08261718750000001 0  0.6405370048634059 0.0181271643224308 0  0.1405370048634059 0.0181271643224308 0  0.796875 0.1 0  0.296875 0.1 0  0.6389903131525874 0.08261718750000001 0  0.1389903131525873 0.08261718750000001 0  0.796875 0 0  0.296875 0 0  0.359375 0 0  0.421875 0 0  0.484375 0 0  0.546875 0 0  0.609375 0 0  0.859375 0 0  0.984375 0 0  0.015625 0 0  0.9808265015870887 0.08306437698386088 0  0.015625 0.1 0  0.140615310157384 0.03789815460447876 0  0.8258710430305984 0.04237660226422156 0  0.3258710430305984 0.04237660226422154 0  0.4508710430305984 0.04237660226422154 0  0.5758710430305984 0.04237660226422156 0  0.73925254007477 0.05238802290978471 0  0.23925254007477 0.05238802290978471 0  0.19824745992523 0.05238802290978471 0  0.3883710430305984 0.04237660226422155 0  0.5133710430305984 0.04237660226422155 0  0.69824745992523 0.05238802290978471 0  0.6406153101573839 0.03789815460447876 0  0.8875652355519991 0.04398459561477483 0  0.03011990291140283 0.01954869700666445 0  0.2976228417042103 0.07944206017604956 0  0.7976228417042103 0.07944206017604956 0  0.6048261925064409 0.0202852140350185 0  0.8548261925064409 0.0202852140350185 0  0.4173261925064409 0.02028521403501849 0  0.5423261925064409 0.02028521403501849 0  0.479826192506441 0.02028521403501848 0  0.354826192506441 0.02028521403501848 0  0.7612196085333947 0.08469269433495656 0  0.2612196085333947 0.08469269433495656 0  0.671875 0.1 0  0.171875 0.1 0  0.1138156987561534 0.01531102667280419 0  0.1439032206506398 0.06434174268079966 0  0.6439032206506399 0.06434174268079966 0  0.7102169938849521 0.03403655887996306 0  0.2102169938849521 0.03403655887996306 0  0.331272668838501 0.06407394409179688 0  0.8312726688385009 0.06407394409179688 0  0.456272668838501 0.06407394409179688 0  0.5812726688385009 0.06407394409179688 0  0.9626931005513372 0.08290734481438196 0  0.7935362330470901 0.01983307912641665 0  0.2935362330470901 0.01983307912641665 0  0.078125 0 0  0.4143262322415116 0.06583278773374907 0  0.5393262322415115 0.06583278773374907 0  0.6756954193768612 0.08284197013692297 0  0.1756954193768612 0.08284197013692297 0  0.1934564775596677 0.08246105735569852 0  0.6934564775596677 0.0824610573556985 0  0.7948904737904949 0.06168801049385652 0  0.2948904737904949 0.06168801049385652 0  0.42558837890625 0.05 0  0.55058837890625 0.05 0  0.185643310546875 0.0173828125 0  0.685643310546875 0.0173828125 0  0.6085613945093048 0.05928612183988766 0  0.4835613945093048 0.05928612183988766 0  0.3585613945093048 0.05928612183988766 0  0.8585613945093048 0.05928612183988766 0  0.2430157823768409 0.0173828125 0  0.743015782376841 0.0173828125 0  0.11308837890625 0.05 0  0.1710613945093048 0.04071387816011236 0  0.6710613945093048 0.04071387816011236 0  0.2664386054906952 0.04071387816011236 0  0.7664386054906952 0.04071387816011236 0  0.1200872144236349 0.08261718750000001 0  0.618015782376841 0.08261718750000001 0  0.4930157823768409 0.08261718750000001 0  0.3680157823768409 0.08261718750000001 0  0.868015782376841 0.08261718750000001 0  0.515625 0.1 0  0.390625 0.1 0  0.265625 0 0  0.765625 0 0  0.516365031953596 0.05946768293606444 0  0.3913650319535959 0.05946768293606444 0  0.8926135952226929 0.06033018746614476 0  0.171875 0 0  0.671875 0 0  0.890625 0 0  0.8808652108632187 0.0171078614816925 0  0.2274441083295474 0.06456313374723947 0  0.7274441083295474 0.06456313374723946 0  0.9350285939903868 0.06406852472525566 0  0.453125 0 0  0.4433265752246126 0.01710378970181546 0  0.328125 0 0  0.3183265752246126 0.01710378970181546 0  0.578125 0 0  0.5683265752246126 0.01710378970181545 0  0.828125 0 0  0.8183265752246126 0.01710378970181545 0  0.515625 0 0  0.5058265752246126 0.01710378970181545 0  0.390625 0 0  0.3808265752246126 0.01710378970181545 0  0.01564771141956889 0.08260299286276945 0  0.9843522885804311 0.01739700713723054 0  0.3551736619148977 0.03733645281383641 0  0.4801736619148977 0.03733645281383641 0  0.8551736619148977 0.03733645281383642 0  0.7687346279121444 0.06091681090943113 0  0.2687346279121444 0.06091681090943113 0  0.6687653720878556 0.06091681090943113 0  0.1687653720878556 0.06091681090943113 0  0.6051736619148977 0.03733645281383642 0  0.2924478939734164 0.03697522410746614 0  0.7924478939734163 0.03697522410746614 0  0.8719142286486647 0.04906985056606887 0  0.6274213820068905 0.04848945596065109 0  0.4983341418505795 0.04892020701904073 0  0.3733341418505795 0.04892020701904073 0  0.3108341418505795 0.04892020701904073 0  0.8108341418505794 0.04892020701904073 0  0.6242024164762008 0.01640567476785111 0  0.3848561971730207 0.08410836408489761 0  0.5098561971730207 0.08410836408489761 0  0.2598561971730207 0.01589163591510238 0  0.7598561971730207 0.01589163591510238 0  0.890625 0.1 0  0.9582054159658413 0.03874795528975266 0  0.03565822065430611 0.08308352918541601 0  0.9643417793456939 0.016916470814584 0  0 0.0625 0  0.0168287001921521 0.05388159890776699 0  0.0417945840341587 0.06125204471024735 0  0.9831712998078479 0.04611840109223304 0  0.5622607296296599 0.08116332765030569 0  0.4372607296296599 0.08116332765030566 0  0.046875 0.1 0  0.953125 0 0  0.415919189453125 0.03668247284720479 0  0.540919189453125 0.03668247284720479 0  0.0859375 0.01393925506164327 0  0.109375 0.1 0  0.1338555271916189 0.05216484236021472 0  0.953125 0.1 0  0.140625 0 0  0.640625 0 0  0.546875 0.1 0  0.421875 0.1 0  0.203125 0 0  0.703125 0 0  0.046875 0 0  0.234375 0.1 0  0.734375 0.1 0  0.078125 0.1 0  0.921875 0 0  0.921875 0.1 0  0.828125 0.1 0  0.328125 0.1 0  0.453125 0.1 0  0.578125 0.1 0  0.640625 0.1 0  0.140625 0.1 0  0.984375 0.1 0  0.765625 0.1 0  0.265625 0.1 0  0.109375 0 0  0.203125 0.1 0  0.703125 0.1 0  0.234375 0 0  0.734375 0 0  0.609375 0.1 0  0.484375 0.1 0  0.359375 0.1 0  0.859375 0.1 0  0.03162846341645094 0.04971906156616034 0  0.9677597279973049 0.05078312969016881 0  0.8125319459969864 0.08431483734279674 0  0.3125319459969864 0.08431483734279674 0  0.01533347852251798 0.02378565849770013
[...]
<PointData  Vectors="damage"> 
<DataArray  type="Float64"  Name="damage"  NumberOfComponents="3" format="ascii">0.0000000000000000e+00 0.0000000000000000e+00 0.0000000000000000e+00  0.0000000000000000e+00 0.0000000000000000e+00 0.0000000000000000e+00  3.2580081259235283e-01 0.0000000000000000e+00 0.0000000000000000e+00  3.2580081259235283e-01 0.0000000000000000e+00 0.0000000000000000e+00  5.0490713280633881e-04 4.4148635837680419e-04 0.0000000000000000e+00  2.4570112250005337e-04 -1.8045620796370462e-04 0.0000000000000000e+00  3.4768712817910651e-05 -1.5045819191785835e-05 0.0000000000000000e+00  4.3121929953436085e-05 -1.9748758862278390e-05 0.0000000000000000e+00  3.2579281951788730e-01 8.2535338120702086e-05 0.0000000000000000e+00  3.2573091563958245e-01 8.7252546018844841e-05 0.0000000000000000e+00  6.0470170521732275e-05 -2.8662136180831593e-05 0.0000000000000000e+00  5.6783672721022966e-05 -2.4305463779200206e-05 0.0000000000000000e+00  1.5797280330915241e-05 -3.8244031658076524e-06 0.0000000000000000e+00  2.2918314187801752e-05 -8.5549587559457790e-06 0.0000000000000000e+00  3.2569998859796356e-01 1.7990124151588208e-04 0.0000000000000000e+00  3.2578421286702258e-01 1.7559384834906435e-04 0.0000000000000000e+00  3.2579841711324475e-01 2.1111984758618259e-05 0.0000000000000000e+00  3.2576450192706907e-01 2.5800352732221073e-05 0.0000000000000000e+00  3.2578900817111800e-01 1.2553596948398468e-04 0.0000000000000000e+00  3.2571517483304430e-01 1.3017416876325938e-04 0.0000000000000000e+00  3.2568060155135348e-01 2.3905894819488505e-04 0.0000000000000000e+00  3.2577489459215597e-01 2.2951268094925482e-04 0.0000000000000000e+00  1.1851665662463771e-05 -4.4303295860916940e-06 0.0000000000000000e+00  7.5239066139985564e-06 2.6176185675725009e-07 0.0000000000000000e+00  3.3386743677795020e-05 -1.3953363060001002e-05 0.0000000000000000e+00  2.4914044163987411e-05 -9.2516699721061084e-06 0.0000000000000000e+00  4.5348037340744273e-05 -2.0324526727125228e-05 0.0000000000000000e+00  5.2116270351347558e-05 -2.5000408940443541e-05 0.0000000000000000e+00  7.0890706146374603e-05 -3.1349616327301106e-05 0.0000000000000000e+00  7.2699386870154201e-05 -2.4064801172360095e-05 0.0000000000000000e+00  3.2574736563156526e-01 5.2138179839132479e-05 0.0000000000000000e+00  3.2579599035689599e-01 4.7439242153613748e-05 0.0000000000000000e+00  3.2579995391095529e-01 4.4702851694301243e-06 0.0000000000000000e+00  3.2578228677025500e-01 9.1829092386804500e-06 0.0000000000000000e+00  3.2577655497058039e-01 3.4570309040091365e-05 0.0000000000000000e+00  3.2576675909152303e-01 6.5454019685520033e-05 0.0000000000000000e+00  5.3617625407186947e-05 -2.4993654778127486e-05 0.0000000000000000e+00  4.3845687935360558e-05 -2.0254519644471804e-05 0.0000000000000000e+00  2.4257929501892445e-05 -8.7096213892798656e-06 0.0000000000000000e+00  3.4050130215522454e-05 -1.4515718772597167e-05 0.0000000000000000e+00  0.0000000000000000e+00 0.0000000000000000e+00 0.0000000000000000e+00  1.4432595445993105e-05 -3.7466520641351685e-06 0.0000000000000000e+00  6.2845358600323073e-05 -2.7826088639185944e-05 0.0000000000000000e+00  7.6992629535066394e-05 -2.9077931002086669e-05 0.0000000000000000e+00  3.2571916454375610e-01 2.6285026466551852e-04 0.0000000000000000e+00  3.2573805108210768e-01 2.0452312326805586e-04 0.0000000000000000e+00  3.2574720759064441e-01 1.5135646267069180e-04 0.0000000000000000e+00  3.2575698464490005e-01 1.0473478033370463e-04 0.0000000000000000e+00  3.2578636742375544e-01 1.2908513295851994e-05 0.0000000000000000e+00  3.2580081259235283e-01 0.0000000000000000e+00 0.0000000000000000e+00  6.8242501524156268e-06 -8.9902679085667988e-07 0.0000000000000000e+00  3.2579452258425046e-01 3.0068080623693237e-06 0.0000000000000000e+00  3.2579119977515342e-01 4.4123825327883446e-06 0.0000000000000000e+00  6.2316252865380051e-06 -2.7921929440866667e-06 0.0000000000000000e+00  3.8825450060740007e-06 1.2076539663572190e-06 0.0000000000000000e+00  3.2580029661255078e-01 4.6081655917025694e-07 0.0000000000000000e+00  3.2580081259235283e-01 0.0000000000000000e+00 0.0000000000000000e+00  3.2578658876908373e-01 2.1878851101421171e-05 0.0000000000000000e+00  3.2577491503274653e-01 2.4690520137513507e-05 0.0000000000000000e+00  3.2575581416594662e-01 3.7888675303047802e-05 0.0000000000000000e+00  3.2579927001006953e-01 1.1467416455250033e-05 0.0000000000000000e+00  3.2575520320493595e-01 1.7665590400511348e-04 0.0000000000000000e+00  3.2572722868926707e-01 1.8086086558714151e-04 0.0000000000000000e+00  3.2569181955943577e-01 2.0749725030284736e-04 0.0000000000000000e+00  3.2574086827484938e-01 1.2795207674534369e-04 0.0000000000000000e+00  3.2576442644602277e-01 1.2904045648596432e-04 0.0000000000000000e+00  3.2578676393154515e-01 1.4971333271398445e-04 0.0000000000000000e+00  3.2572296355507158e-01 1.0775843910281550e-04 0.0000000000000000e+00  3.2574662683267758e-01 2.3193599114289349e-04 0.0000000000000000e+00  3.2571481154046422e-01 2.3865565800366138e-04 0.0000000000000000e+00  3.2565467218274313e-01 2.8653953860511991e-04 0.0000000000000000e+00  3.2570761044840191e-01 1.5427128524778656e-04 0.0000000000000000e+00  3.2578090926959064e-01 2.0270132151049871e-04 0.0000000000000000e+00  1.5638260346659860e-04 -4.1212926626228389e-05 0.0000000000000000e+00  2.7987629549599711e-04 -1.5697146287425044e-05 0.0000000000000000e+00  9.7629140840282562e-05 -8.5059995643275426e-06 0.0000000000000000e+00  3.2575308689611066e-01 2.4699180117702691e-04 0.0000000000000000e+00  6.7723701995964520e-05 -2.9239218123775988e-05 0.0000000000000000e+00  6.7650359740855815e-05 -2.7131615044112850e-05 0.0000000000000000e+00  6.3266758141786723e-05 -2.5354680669986295e-05 0.0000000000000000e+00  8.5316055511751345e-05 -3.8068618477984208e-05 0.0000000000000000e+00  5.8962213451319888e-05 -2.7289135217815283e-05 0.0000000000000000e+00  5.7282511325215680e-05 -2.5802980105856691e-05 0.0000000000000000e+00  5.0908801986253253e-05 -2.2504446747564310e-05 0.0000000000000000e+00  6.4855077717784778e-05 -2.9714702612814779e-05 0.0000000000000000e+00  1.1543758641731251e-05 -1.5417714674082666e-06 0.0000000000000000e+00  1.7429556889189174e-05 -6.2961388336762070e-06 0.0000000000000000e+00  2.0393402319501958e-05 -6.8024462852690028e-06 0.0000000000000000e+00  1.7653679523622401e-05 -4.9854238719007836e-06 0.0000000000000000e+00  2.7912473727647906e-05 -1.0852057515611867e-05 0.0000000000000000e+00  3.0023043627065096e-05 -1.2067238902304355e-05 0.0000000000000000e+00  2.8244509165509487e-05 -1.1141094208519811e-05 0.0000000000000000e+00  2.9749986253228506e-05 -1.2160183273264243e-05 0.0000000000000000e+00  2.0259808910388939e-05 -6.4407616817721616e-06 0.0000000000000000e+00  4.7715798709603752e-05 -2.2506397535002066e-05 0.0000000000000000e+00  4.9724601988594498e-05 -2.3494724110502102e-05 0.0000000000000000e+00  4.7056606575019960e-05 -2.1702895996235502e-05 0.0000000000000000e+00  3.9963204909632627e-05 -1.7806550486648834e-05 0.0000000000000000e+00  3.7724424885715153e-05 -1.6729168146438849e-05 0.0000000000000000e+00  4.0872761193980580e-05 -1.8577556235613188e-05 0.0000000000000000e+00  3.8345261473736366e-05 -1.6858942465282195e-05 0.0000000000000000e+00  5.6332297586092109e-05 -2.7110380002664070e-05 0.0000000000000000e+00  3.2579453130308400e-01 6.3918221307664001e-05 0.0000000000000000e+00  3.2577901258311748e-01 4.8329259592784156e-05 0.0000000000000000e+00  3.2576256772577089e-01 5.1616298346336387e-05 0.0000000000000000e+00  3.2573900831491553e-01 6.8633090041945449e-05 0.0000000000000000e+00  3.2575249489416719e-01 8.4906066270501798e-05 0.0000000000000000e+00  3.2577297272239825e-01 8.1251127920058157e-05 0.0000000000000000e+00  3.2579103405185861e-01 1.0306720018956862e-04 0.0000000000000000e+00  3.2577337479807900e-01 1.6248327452576418e-05 0.0000000000000000e+00  3.2579724091963042e-01 3.3066879936683703e-05 0.0000000000000000e+00  3.2579577531132176e-01 1.6066561153374075e-06 0.0000000000000000e+00  3.2579418046878372e-01 8.0475432588202934e-06 0.0000000000000000e+00  0.0000000000000000e+00 0.0000000000000000e+00 0.0000000000000000e+00  4.0897167917620802e-06 -1.0309049797472217e-06 0.0000000000000000e+00  1.0121244969545300e-05 -1.4155581135391685e-06 0.0000000000000000e+00  3.2578341522882320e-01 1.0430375788819538e-05 0.0000000000000000e+00  1.3221665739795505e-05 -4.0019053931075598e-06 0.0000000000000000e+00  3.2578928784297145e-01 5.3638865891712209e-06 0.0000000000000000e+00  8.6859246919983808e-06 -2.5699743901280134e-06 0.0000000000000000e+00  3.2577817600493864e-01 1.6995075777280005e-05 0.0000000000000000e+00  2.9962579788898516e-06 2.9575593522623281e-08 0.0000000000000000e+00  3.2579838385819482e-01 3.0943411442224945e-07 0.0000000000000000e+00  3.2574145975073016e-01 1.0119853727773314e-04 0.0000000000000000e+00  3.2576427874820568e-01 3.9950492611069919e-05 0.0000000000000000e+00  3.3091687012424027e-05 -1.4012861914357778e-05 0.0000000000000000e+00  5.0797165426333881e-05 -2.3209021417737549e-05 0.0000000000000000e+00  2.6783688150739623e-05 -1.0234528341586048e-05 0.0000000000000000e+00  6.2706402084053504e-05 -2.8481023291908242e-05 0.0000000000000000e+00  7.5751291156792253e-05 -2.3295625197333397e-05 0.0000000000000000e+00  3.2573736607814568e-01 2.5998288262224885e-04 0.0000000000000000e+00  3.2571356804751173e-01 2.1412718161937375e-04 0.0000000000000000e+00  3.2576734506145211e-01 1.4743466742367869e-04 0.0000000000000000e+00  4.5155867444108253e-05 -2.1080091579063399e-05 0.0000000000000000e+00  3.2578019095443350e-01 6.6629998630186873e-05 0.0000000000000000e+00  0.0000000000000000e+00 0.0000000000000000e+00 0.0000000000000000e+00  3.2580081259235283e-01 0.0000000000000000e+00 0.0000000000000000e+00  3.2578752513412235e-01 3.0639257869164379e-05 0.0000000000000000e+00  3.2575143684269253e-01 7.0933899996353979e-05 0.0000000000000000e+00  5.5952508707999481e-05 -2.6492204223558915e-05 0.0000000000000000e+00  4.0807307247128968e-05 -1.8430500144283364e-05 0.0000000000000000e+00  6.1380745072139807e-05 -2.6569384334382563e-05 0.0000000000000000e+00  7.9144805448265335e-05 -3.7039962593998789e-05 0.0000000000000000e+00  3.2566624315594794e-01 2.9061068630788120e-04 0.0000000000000000e+00  3.2576047881744008e-01 1.9729267077872435e-04 0.0000000000000000e+00  3.2572887478548612e-01 1.4696719643292528e-04 0.0000000000000000e+00  2.3410916638970027e-05 -8.1913841770926854e-06 0.0000000000000000e+00  3.4695537795308875e-05 -1.4823194005673675e-05 0.0000000000000000e+00  3.2577289400112125e-01 1.1012487129417585e-04 0.0000000000000000e+00  1.3592863537271923e-05 -2.8446725032559322e-06 0.0000000000000000e+00  1.7527754420855587e-05 -5.7172045705986638e-06 0.0000000000000000e+00  3.2579243335314378e-01 1.4446768271039970e-05 0.0000000000000000e+00  3.2577911467595172e-01 9.3828757628898972e-05 0.0000000000000000e+00  3.8841284287913729e-05 -1.7301008427942960e-05 0.0000000000000000e+00  6.5839526582067268e-06 3.2754549083236201e-09 0.0000000000000000e+00  3.2578974577316078e-01 7.2846000709155369e-06 0.0000000000000000e+00  3.2579669671492889e-01 3.4720547452089374e-06 0.0000000000000000e+00  1.0738682139904322e-05 -2.3784827050686732e-06 0.0000000000000000e+00  3.2573143231464308e-01 1.1754236683746467e-04 0.0000000000000000e+00  2.8863552821145402e-05 -1.1508605503354712e-05 0.0000000000000000e+00  3.2578874755926035e-01 4.0309112105604195e-05 0.0000000000000000e+00  5.3126859411904901e-05 -2.5388566849277561e-05 0.0000000000000000e+00  6.6223881856140269e-05 -2.9409349095628777e-05 0.0000000000000000e+00  7.2433993206554533e-05 -3.1786701656738411e-05 0.0000000000000000e+00  3.2575688488125271e-01 2.4377265719592004e-04 0.0000000000000000e+00  3.2576389631963676e-01 2.1718705887521455e-04 0.0000000000000000e+00  3.2571869442681756e-01 1.6574834632149631e-04 0.0000000000000000e+00  1.9438921715171881e-05 -5.8829096351573859e-06 0.0000000000000000e+00  3.2579530940940554e-01 5.5424458887679114e-05 0.0000000000000000e+00  4.9943289735179309e-05 -2.3794852071566576e-05 0.0000000000000000e+00  3.2577111330122577e-01 1.6431332232831603e-04 0.0000000000000000e+00  2.3945767679740759e-05 -8.8015970916843479e-06 0.0000000000000000e+00  3.2574315781980689e-01 6.0092734064257154e-05 0.0000000000000000e+00  4.2630529660750165e-05 -1.9104850856936938e-05 0.0000000000000000e+00  5.3790623129177379e-05 -2.3473399501656844e-05 0.0000000000000000e+00  6.7329227739699473e-05 -2.5286149419099846e-05 0.0000000000000000e+00  1.3819550613896654e-04 2.5789251348335344e-05 0.0000000000000000e+00  3.2567066326180000e-01 2.5916177940925626e-04 0.0000000000000000e+00  3.2569608860827798e-01 1.9338411175199912e-04 0.0000000000000000e+00  3.2576014121388752e-01 3.1520899929644330e-05 0.0000000000000000e+00  3.2579567218358918e-01 2.5275233726008339e-06 0.0000000000000000e+00  2.1040089951106079e-06 1.1100813653339826e-06 0.0000000000000000e+00  3.2579972139450314e-01 -1.2504708415139132e-07 0.0000000000000000e+00  3.3197653430762424e-06 -1.7419074574708326e-06 0.0000000000000000e+00  2.0924621745634339e-05 -6.7872901533362327e-06 0.0000000000000000e+00  3.2577029814164177e-01 4.2904610019017716e-05 0.0000000000000000e+00  5.0385317961021376e-05 -2.3433939279591799e-05 0.0000000000000000e+00  7.0741680270387770e-05 -2.7370891965647800e-05 0.0000000000000000e+00  3.2572832809878050e-01 2.2126006100869783e-04 0.0000000000000000e+00  3.2576168713851578e-01 9.0882893020722218e-05 0.0000000000000000e+00  3.7455998207997170e-05 -1.6562216178664510e-05 0.0000000000000000e+00  3.1033269484032141e-05 -1.2686793761223884e-05 0.0000000000000000e+00  6.0157683069991744e-05 -2.6963082756135663e-05 0.0000000000000000e+00  3.2562929254751244e-01 2.9482236600521494e-04 0.0000000000000000e+00  3.2575546057643440e-01 1.1914759904844169e-04 0.0000000000000000e+00  3.2573493171079360e-01 1.6463241817554311e-04 0.0000000000000000e+00  3.2578160833853798e-01 1.8658009081941132e-05 0.0000000000000000e+00  3.8785202262150342e-06 5.1746416434082726e-07 0.0000000000000000e+00  4.8486022823953078e-05 -2.2967846333193203e-05 0.0000000000000000e+00  3.2578456361986702e-01 5.5439897837361114e-05 0.0000000000000000e+00  3.2571326916225868e-01 1.9602723279802656e-04 0.0000000000000000e+00  3.2576682440004728e-01 3.1754911470868244e-05 0.0000000000000000e+00  6.5091204520949808e-05 -2.6730231475526755e-05 0.0000000000000000e+00  3.2569419075366068e-01 2.6022534737408446e-04 0.0000000000000000e+00  9.3889469746617047e-05 -9.9615858247496367e-06 0.0000000000000000e+00  5.3991261700835067e-05 -2.4281944528534470e-05 0.0000000000000000e+00  3.2578426871750654e-01 7.5986701002221115e-05 0.0000000000000000e+00  4.3477204764611060e-05 -2.0070280299902083e-05 0.0000000000000000e+00  3.2578789798939578e-01 1.3739129705796842e-04 0.0000000000000000e+00  3.0838041404216351e-05 -1.2528314289917853e-05 0.0000000000000000e+00  1.5336252859104549e-05 -3.6124968869028855e-06 0.0000000000000000e+00  2.3373544313218340e-05 -8.3207021000653115e-06 0.0000000000000000e+00  3.2575691804518714e-01 1.6085330738405124e-04 0.0000000000000000e+00  3.2574452912691571e-01 1.1152587337193024e-04 0.0000000000000000e+00  3.1389403964851581e-05 -1.2956655012118461e-05 0.0000000000000000e+00  5.2478196450213073e-05 -2.4794766537790650e-05 0.0000000000000000e+00  3.2578078871241117e-01 3.9466826296990816e-05 0.0000000000000000e+00  7.1486068361861568e-05 -3.0497860710073377e-05 0.0000000000000000e+00  3.2574862612503885e-01 2.1518538483674275e-04 0.0000000000000000e+00  3.2579856310762739e-01 1.1083995154432173e-06 0.0000000000000000e+00  3.2575279931767442e-01 6.0443090795438378e-05 0.0000000000000000e+00  4.3594699908514260e-05 -1.9832355449664212e-05 0.0000000000000000e+00  9.4973955305189436e-06 -5.6896474577303942e-07 0.0000000000000000e+00  6.4357444767720382e-05 -2.8559677278760651e-05 0.0000000000000000e+00  3.2574056628851050e-01 2.5158201249854189e-04 0.0000000000000000e+00  3.2577506030621545e-01 1.3488777789396797e-04 0.0000000000000000e+00  2.9972123044026387e-05 -1.2037129205184548e-05 0.0000000000000000e+00  3.2783298210105224e-05 -1.3660153499783674e-05 0.0000000000000000e+00  3.2577656948595984e-01 1.2153021762966560e-04 0.0000000000000000e+00  3.2577500416534877e-01 5.7506218982896874e-05 0.0000000000000000e+00  4.6805949225389422e-05 -2.1942940016608672e-05 0.0000000000000000e+00  6.5597512710182662e-05 -2.8162992599294251e-05 0.0000000000000000e+00  3.2572959901202758e-01 2.4458811871281970e-04 0.0000000000000000e+00  2.6169811311327947e-05 -9.8754693452345161e-06 0.0000000000000000e+00  3.2572765822517324e-01 1.3036820238527614e-04 0.0000000000000000e+00  3.2574810353598999e-01 1.9106044881035390e-04 0.0000000000000000e+00  8.4921501573433512e-05 -3.4049440851357283e-05 0.0000000000000000e+00  5.6316661944253345e-05 -2.6266477115412874e-05 0.0000000000000000e+00  3.2578236773305402e-01 2.8132829176826431e-05 0.0000000000000000e+00  3.5159698203031029e-05 -1.5249139260342911e-05 0.0000000000000000e+00  3.2574015546527252e-01 9.0433756585987633e-05 0.0000000000000000e+00  1.7479331217886322e-05 -5.1397699201688133e-06 0.0000000000000000e+00  2.5842737989665147e-05 -9.6097027153336347e-06 0.0000000000000000e+00  3.2574240914433183e-01 1.4014489414245802e-04 0.0000000000000000e+00  4.0804774703757997e-05 -1.8507822720129122e-05 0.0000000000000000e+00  3.2575902268805490e-01 7.4521044056486310e-05 0.0000000000000000e+00  2.0795106967521276e-05 -7.2839241101416216e-06 0.0000000000000000e+00  3.2576886268452948e-01 1.8211169873577870e-04 0.0000000000000000e+00  1.0341691749298092e-04 -5.7678364806622701e-05 0.0000000000000000e+00  5.8742817899749773e-05 -2.7659353917826253e-05 0.0000000000000000e+00  3.2579188687393013e-01 2.3898731892907656e-05 0.0000000000000000e+00  3.2565812326741050e-01 1.9568504517830865e-04 0.0000000000000000e+00  6.2598450585681911e-05 -2.9230173887016016e-05 0.0000000000000000e+00  3.7344385744786692e-05 -1.6449906444555369e-05 0.0000000000000000e+00  3.2573492631455370e-01 7.7677900318927560e-05 0.0000000000000000e+00  3.2569950930290092e-01 2.7312355010614462e-04 0.0000000000000000e+00  6.1045754742858349e-05 -2.7697525707816152e-05 0.0000000000000000e+00  3.2578719842439108e-01 1.6380472456458039e-05 0.0000000000000000e+00  2.2568681054835264e-05 -7.8243824349878001e-06 0.0000000000000000e+00  3.2571133878829550e-01 1.4199555771011538e-04 0.0000000000000000e+00  3.2576891125780411e-01 2.0701392492218692e-05 0.0000000000000000e+00  3.2577181665392718e-01 2.2481297211531137e-05 0.0000000000000000e+00  3.6612354445014884e-05 -1.6022570898953125e-05 0.0000000000000000e+00  3.2576794619550353e-01 9.8179589071965858e-05 0.0000000000000000e+00  3.2579345404457483e-01 5.6377691295111121e-06 0.0000000000000000e+00  8.1191248249056595e-05 -2.0172004145866280e-05 0.0000000000000000e+00  7.1605473340408173e-05 -2.5215598373248908e-05 0.0000000000000000e+00  4.8098000910419173e-05 -2.1452740768858974e-05 0.0000000000000000e+00  4.7564580499051959e-05 -2.1645899909747771e-05 0.0000000000000000e+00  3.2568683902773965e-01 2.2274592976124228e-04 0.0000000000000000e+00  3.2570165235219073e-01 2.3069560110758761e-04 0.0000000000000000e+00  3.2575154136099638e-01 4.4784163567936454e-05 0.0000000000000000e+00  3.2575706813118938e-01 4.8009849116903425e-05 0.0000000000000000e+00  3.2561529156930258e-01 3.3073202272636845e-04 0.0000000000000000e+00  3.2539078243624725e-01 2.6662116099082975e-04 0.0000000000000000e+00  5.9891850975971723e-05 -2.4931296883582753e-05 0.0000000000000000e+00  5.8456997510302085e-05 -2.5527174348992107e-05 0.0000000000000000e+00  2.6215162792087670e-06 -9.6322002173378214e-07 0.0000000000000000e+00  3.2579722827699631e-01 1.1839861934152562e-06 0.0000000000000000e+00  5.4814928737783938e-05 -2.5118837407695838e-05 0.0000000000000000e+00  9.0702472820548840e-05 -2.3431865334944901e-05 0.0000000000000000e+00  3.2577346701810778e-01 3.0565357916593095e-05 0.0000000000000000e+00  3.257711089188434