<?xml version="1.0"?>
<VTKFile type="UnstructuredGrid"  version="0.1"  >
<UnstructuredGrid>
<Piece  NumberOfPoints="820" NumberOfCells="1464">
<Points>
<DataArray  type="Float64"  NumberOfComponents="3"  format="ascii">0 0.1 0  0 0 0  1 0 0  1 0.1 0  0.5 0 0  0.5 0.1 0  0.25 0 0  0.25 0.1 0  0.75 0.1 0  0.75 0 0  0.375 0.1 0  0.375 0 0  0.125 0 0  0.125 0.1 0  0.625 0 0  0.625 0.1 0  0.875 0.1 0  0.875 0 0  0.6875 0.1 0  0.6875 0 0  0.5625 0 0  0.5625 0.1 0  0.0625 0.1 0  0.0625 0 0  0.1875 0.1 0  0.1875 0 0  0.3125 0 0  0.3125 0.1 0  0.4375 0.1 0  0.4375 0 0  0.8125 0 0  0.8125 0.1 0  0.9375 0.1 0  0.9375 0 0  0.84375 0.05000000000000001 0  0.78125 0.05 0  0.34375 0.05000000000000001 0  0.28125 0.05 0  0.15625 0.05 0  0.21875 0.05000000000000001 0  0 0.05 0  0.09375 0.05000000000000001 0  0.40625 0.05 0  0.46875 0.05000000000000001 0  0.53125 0.05 0  0.59375 0.05000000000000001 0  0.65625 0.05 0  0.71875 0.05000000000000001 0  0.90625 0.05 0  1 0.05 0  0.046875 0.04453125000000001 0  0.953125 0.05546875 0  0.96875 0 0  0.03125 0.1 0  0.03125 0 0  0.96875 0.1 0  1 0.07500000000000001 0  0.875 0.06523437500000001 0  0.8715625 0.03261718750000001 0  0.84375 0 0  0.90625 0.1 0  0.625 0.06523437500000001 0  0.6215625 0.03261718750000001 0  0.59375 0 0  0.6875 0.034765625 0  0.6840625 0.0673828125 0  0.65625 0.1 0  0.71875 0 0  0.5625 0.06523437500000001 0  0.5590625 0.03261718750000001 0  0.53125 0 0  0.65625 0 0  0.59375 0.1 0  0.5 0.06523437500000001 0  0.4965625 0.03261718750000001 0  0.46875 0 0  0.53125 0.1 0  0.4375 0.06523437500000001 0  0.4340625 0.03261718750000001 0  0.40625 0 0  0.46875 0.1 0  0.375 0.06523437500000001 0  0.3715625 0.03261718750000001 0  0.34375 0 0  0.40625 0.1 0  0.09375 0 0  0.09375 0.1 0  0.125 0.06523437500000001 0  0.1215625 0.03261718750000001 0  0.1875 0.034765625 0  0.1840625 0.0673828125 0  0.15625 0.1 0  0.21875 0 0  0.15625 0 0  0.28125 0.1 0  0.3125 0.06523437500000001 0  0.3090625 0.03261718750000001 0  0.28125 0 0  0.25 0.034765625 0  0.2534375 0.0673828125 0  0.21875 0.1 0  0.34375 0.1 0  0.78125 0.1 0  0.8125 0.06523437500000001 0  0.8090625 0.03261718750000001 0  0.78125 0 0  0.75 0.034765625 0  0.7534375 0.0673828125 0  0.71875 0.1 0  0.90625 0 0  0.84375 0.1 0  0.9740776699029127 0.03143583131067961 0  0.921875 0.075 0  0 0.025 0  0.02592233009708738 0.06856416868932039 0  0.0725 0.028515625 0  0.921875 0.025 0  0.078125 0.07500000000000001 0  0.9484670937186905 0.0242372460741816 0  0.05153290628130947 0.07576275392581842 0  0.8963594872172794 0.02643561701079966 0  0.02229817708333334 0.0375 0  0.9777018229166666 0.06250000000000001 0  0.72590087890625 0.025 0  0.8345789124085022 0.025 0  0.22590087890625 0.025 0  0.3345789124085023 0.025 0  0.15996337890625 0.075 0  0.39909912109375 0.075 0  0.4595789124085023 0.025 0  0.52409912109375 0.075 0  0.5845789124085022 0.025 0  0.65996337890625 0.075 0  0.27753662109375 0.075 0  0.77753662109375 0.075 0  0 0.07500000000000001 0  1 0.025 0  0.85090087890625 0.07500000000000001 0  0.77409912109375 0.025 0  0.35090087890625 0.07500000000000001 0  0.27409912109375 0.025 0  0.3970789124085022 0.025 0  0.47590087890625 0.07500000000000001 0  0.5220789124085022 0.025 0  0.60090087890625 0.07500000000000001 0  0.66340087890625 0.025 0  0.16340087890625 0.025 0  0.2095789124085023 0.07500000000000001 0  0.7095789124085022 0.07500000000000001 0  0.0974991439537346 0.02496950333675565 0  0.1029665898617512 0.07685681883640554 0  0.8970334101382489 0.07685681883640554 0  0.7331321502083639 0.0805418246751822 0  0.2331321502083639 0.08054182467518221 0  0.04967773437499999 0.02050781250000001 0  0.9302821601941748 0.04763728762135922 0  0.9453125 0.07773437499999999 0  0.06981448887637284 0.05242311804773303 0  0.703125 0.0173828125 0  0.203125 0.0173828125 0  0.828125 0.08261718750000001 0  0.328125 0.08261718750000001 0  0.4213608787615672 0.08215505604972331 0  0.453125 0.08261718750000001 0  0.5463608787615671 0.08215505604972331 0  0.578125 0.08261718750000001 0  0.6405370048634059 0.0181271643224308 0  0.1405370048634059 0.0181271643224308 0  0.796875 0.1 0  0.296875 0.1 0  0.6389903131525874 0.08261718750000001 0  0.1389903131525873 0.08261718750000001 0  0.796875 0 0  0.296875 0 0  0.359375 0 0  0.421875 0 0  0.484375 0 0  0.546875 0 0  0.609375 0 0  0.859375 0 0  0.984375 0 0  0.015625 0 0  0.9808265015870887 0.08306437698386088 0  0.015625 0.1 0  0.140615310157384 0.03789815460447876 0  0.8258710430305984 0.04237660226422156 0  0.3258710430305984 0.04237660226422154 0  0.4508710430305984 0.04237660226422154 0  0.5758710430305984 0.04237660226422156 0  0.73925254007477 0.05238802290978471 0  0.23925254007477 0.05238802290978471 0  0.19824745992523 0.05238802290978471 0  0.3883710430305984 0.04237660226422155 0  0.5133710430305984 0.04237660226422155 0  0.69824745992523 0.05238802290978471 0  0.6406153101573839 0.03789815460447876 0  0.8875652355519991 0.04398459561477483 0  0.03011990291140283 0.01954869700666445 0  0.2976228417042103 0.07944206017604956 0  0.7976228417042103 0.07944206017604956 0  0.6048261925064409 0.0202852140350185 0  0.8548261925064409 0.0202852140350185 0  0.4173261925064409 0.02028521403501849 0  0.5423261925064409 0.02028521403501849 0  0.479826192506441 0.02028521403501848 0  0.354826192506441 0.02028521403501848 0  0.7612196085333947 0.08469269433495656 0  0.2612196085333947 0.08469269433495656 0  0.671875 0.1 0  0.171875 0.1 0  0.1138156987561534 0.01531102667280419 0  0.1439032206506398 0.06434174268079966 0  0.6439032206506399 0.06434174268079966 0  0.7102169938849521 0.03403655887996306 0  0.2102169938849521 0.03403655887996306 0  0.331272668838501 0.06407394409179688 0  0.8312726688385009 0.06407394409179688 0  0.456272668838501 0.06407394409179688 0  0.5812726688385009 0.06407394409179688 0  0.9626931005513372 0.08290734481438196 0  0.7935362330470901 0.01983307912641665 0  0.2935362330470901 0.01983307912641665 0  0.078125 0 0  0.4143262322415116 0.06583278773374907 0  0.5393262322415115 0.06583278773374907 0  0.6756954193768612 0.08284197013692297 0  0.1756954193768612 0.08284197013692297 0  0.1934564775596677 0.08246105735569852 0  0.6934564775596677 0.0824610573556985 0  0.7948904737904949 0.06168801049385652 0  0.2948904737904949 0.06168801049385652 0  0.42558837890625 0.05 0  0.55058837890625 0.05 0  0.185643310546875 0.0173828125 0  0.685643310546875 0.0173828125 0  0.6085613945093048 0.05928612183988766 0  0.4835613945093048 0.05928612183988766 0  0.3585613945093048 0.05928612183988766 0  0.8585613945093048 0.05928612183988766 0  0.2430157823768409 0.0173828125 0  0.743015782376841 0.0173828125 0  0.11308837890625 0.05 0  0.1710613945093048 0.04071387816011236 0  0.6710613945093048 0.04071387816011236 0  0.2664386054906952 0.04071387816011236 0  0.7664386054906952 0.04071387816011236 0  0.1200872144236349 0.08261718750000001 0  0.618015782376841 0.08261718750000001 0  0.4930157823768409 0.08261718750000001 0  0.3680157823768409 0.08261718750000001 0  0.868015782376841 0.08261718750000001 0  0.515625 0.1 0  0.390625 0.1 0  0.265625 0 0  0.765625 0 0  0.516365031953596 0.05946768293606444 0  0.3913650319535959 0.05946768293606444 0  0.8926135952226929 0.06033018746614476 0  0.171875 0 0  0.671875 0 0  0.890625 0 0  0.8808652108632187 0.0171078614816925 0  0.2274441083295474 0.06456313374723947 0  0.7274441083295474 0.06456313374723946 0  0.9350285939903868 0.06406852472525566 0  0.453125 0 0  0.4433265752246126 0.01710378970181546 0  0.328125 0 0  0.3183265752246126 0.01710378970181546 0  0.578125 0 0  0.5683265752246126 0.01710378970181545 0  0.828125 0 0  0.8183265752246126 0.01710378970181545 0  0.515625 0 0  0.5058265752246126 0.01710378970181545 0  0.390625 0 0  0.3808265752246126 0.01710378970181545 0  0.01564771141956889 0.08260299286276945 0  0.9843522885804311 0.01739700713723054 0  0.3551736619148977 0.03733645281383641 0  0.4801736619148977 0.03733645281383641 0  0.8551736619148977 0.03733645281383642 0  0.7687346279121444 0.06091681090943113 0  0.2687346279121444 0.06091681090943113 0  0.6687653720878556 0.06091681090943113 0  0.1687653720878556 0.06091681090943113 0  0.6051736619148977 0.03733645281383642 0  0.2924478939734164 0.03697522410746614 0  0.7924478939734163 0.03697522410746614 0  0.8719142286486647 0.04906985056606887 0  0.6274213820068905 0.04848945596065109 0  0.4983341418505795 0.04892020701904073 0  0.3733341418505795 0.04892020701904073 0  0.3108341418505795 0.04892020701904073 0  0.8108341418505794 0.04892020701904073 0  0.6242024164762008 0.01640567476785111 0  0.3848561971730207 0.08410836408489761 0  0.5098561971730207 0.08410836408489761 0  0.2598561971730207 0.01589163591510238 0  0.7598561971730207 0.01589163591510238 0  0.890625 0.1 0  0.9582054159658413 0.03874795528975266 0  0.03565822065430611 0.08308352918541601 0  0.9643417793456939 0.016916470814584 0  0 0.0625 0  0.0168287001921521 0.05388159890776699 0  0.0417945840341587 0.06125204471024735 0  0.9831712998078479 0.04611840109223304 0  0.5622607296296599 0.08116332765030569 0  0.4372607296296599 0.08116332765030566 0  0.046875 0.1 0  0.953125 0 0  0.415919189453125 0.03668247284720479 0  0.540919189453125 0.03668247284720479 0  0.0859375 0.01393925506164327 0  0.109375 0.1 0  0.1338555271916189 0.05216484236021472 0  0.953125 0.1 0  0.140625 0 0  0.640625 0 0  0.546875 0.1 0  0.421875 0.1 0  0.203125 0 0  0.703125 0 0  0.046875 0 0  0.234375 0.1 0  0.734375 0.1 0  0.078125 0.1 0  0.921875 0 0  0.921875 0.1 0  0.828125 0.1 0  0.328125 0.1 0  0.453125 0.1 0  0.578125 0.1 0  0.640625 0.1 0  0.140625 0.1 0  0.984375 0.1 0  0.765625 0.1 0  0.265625 0.1 0  0.109375 0 0  0.203125 0.1 0  0.703125 0.1 0  0.234375 0 0  0.734375 0 0  0.609375 0.1 0  0.484375 0.1 0  0.359375 0.1 0  0.859375 0.1 0  0.03162846341645094 0.04971906156616034 0  0.9677597279973049 0.05078312969016881 0  0.8125319459969864 0.08431483734279674 0  0.3125319459969864 0.08431483734279674 0  0.01533347852251798 0.02378565849770013
[...]
<PointData  Vectors="damage"> 
<DataArray  type="Float64"  Name="damage"  NumberOfComponents="3" format="ascii">0.0000000000000000e+00 0.0000000000000000e+00 0.0000000000000000e+00  0.0000000000000000e+00 0.0000000000000000e+00 0.0000000000000000e+00  1.5581777993547311e-01 0.0000000000000000e+00 0.0000000000000000e+00  1.5581777993547311e-01 0.0000000000000000e+00 0.0000000000000000e+00  7.7905318036789795e-02 2.3945947931926907e-03 0.0000000000000000e+00  7.7911718687117937e-02 -2.2934633802106021e-03 0.0000000000000000e+00  3.8845055167766672e-02 2.3962330617582385e-03 0.0000000000000000e+00  3.8837670570597338e-02 -2.2917026179533413e-03 0.0000000000000000e+00  1.1698059416168288e-01 -2.3166650102139285e-03 0.0000000000000000e+00  1.1697075597167272e-01 2.3712768232696264e-03 0.0000000000000000e+00  5.8375348876097001e-02 -2.2883031151264823e-03 0.0000000000000000e+00  5.8374551354707031e-02 2.3997572299989506e-03 0.0000000000000000e+00  1.9317075369429896e-02 2.3918783080631089e-03 0.0000000000000000e+00  1.9299192661879482e-02 -2.3179235727859909e-03 0.0000000000000000e+00  9.7437382991733781e-02 2.3840443049426697e-03 0.0000000000000000e+00  9.7446792159291806e-02 -2.3040152750087926e-03 0.0000000000000000e+00  1.3651292968429649e-01 -2.3395513298024198e-03 0.0000000000000000e+00  1.3650466474132317e-01 2.3709324186217805e-03 0.0000000000000000e+00  1.0721384175687626e-01 -2.3102979237052752e-03 0.0000000000000000e+00  1.0720389095083359e-01 2.3777527631834794e-03 0.0000000000000000e+00  8.7671187766043948e-02 2.3897904552570067e-03 0.0000000000000000e+00  8.7679416226979237e-02 -2.2982673778696029e-03 0.0000000000000000e+00  9.6565485644922750e-03 -2.3151451870417439e-03 0.0000000000000000e+00  9.6748382517407323e-03 2.3669103443359815e-03 0.0000000000000000e+00  2.9067620938959666e-02 -2.2980801919983474e-03 0.0000000000000000e+00  2.9080085759345242e-02 2.3905867275815997e-03 0.0000000000000000e+00  4.8609654785346748e-02 2.3993009811960177e-03 0.0000000000000000e+00  4.8606676313541278e-02 -2.2887501411972132e-03 0.0000000000000000e+00  6.8143690472769317e-02 -2.2900053327196144e-03 0.0000000000000000e+00  6.8139772433437232e-02 2.3980532266498649e-03 0.0000000000000000e+00  1.2673868336031135e-01 2.3654489642161618e-03 0.0000000000000000e+00  1.2674774818644774e-01 -2.3231365502847609e-03 0.0000000000000000e+00  1.4615385887146815e-01 -2.3339676935534119e-03 0.0000000000000000e+00  1.4614394526642210e-01 2.3509266125850171e-03 0.0000000000000000e+00  1.3162566565503786e-01 1.8206209270414414e-05 0.0000000000000000e+00  1.2185885469507592e-01 2.4124379972462828e-05 0.0000000000000000e+00  5.3491557807119540e-02 5.6026721720397084e-05 0.0000000000000000e+00  4.3724778027875527e-02 5.4396457953858163e-05 0.0000000000000000e+00  2.4191231123877159e-02 4.2580644833553493e-05 0.0000000000000000e+00  3.3958168316907685e-02 4.9977823137878570e-05 0.0000000000000000e+00  0.0000000000000000e+00 0.0000000000000000e+00 0.0000000000000000e+00  1.4393450355174881e-02 3.2142480701321282e-05 0.0000000000000000e+00  6.3258353585697480e-02 5.5305781629724493e-05 0.0000000000000000e+00  7.3025126093854267e-02 5.2639079026846369e-05 0.0000000000000000e+00  8.2791917235494561e-02 4.8415785511050116e-05 0.0000000000000000e+00  9.2558694134471486e-02 4.3052408453269587e-05 0.0000000000000000e+00  1.0232547989794348e-01 3.6946007623549512e-05 0.0000000000000000e+00  1.1209226000807690e-01 3.0501111381197829e-05 0.0000000000000000e+00  1.4142475477089270e-01 1.2880785616948740e-05 0.0000000000000000e+00  1.5581777993547311e-01 0.0000000000000000e+00 0.0000000000000000e+00  6.9722742730862928e-03 2.5995824683066135e-04 0.0000000000000000e+00  1.4885517102031418e-01 -2.2911829643141657e-04 0.0000000000000000e+00  1.5077052350099063e-01 2.0345943791715048e-03 0.0000000000000000e+00  5.0175789070526812e-03 -1.9860982830968597e-03 0.0000000000000000e+00  5.0679764476029730e-03 2.0237670976425396e-03 0.0000000000000000e+00  1.5078099598601333e-01 -1.9874421975458394e-03 0.0000000000000000e+00  1.5581777993547311e-01 0.0000000000000000e+00 0.0000000000000000e+00  1.3651369944613662e-01 -7.0525324284305456e-04 0.0000000000000000e+00  1.3597312001057182e-01 8.3732006958079437e-04 0.0000000000000000e+00  1.3162333683529720e-01 2.3650912538393984e-03 0.0000000000000000e+00  1.4137122256857348e-01 -2.3572747135805479e-03 0.0000000000000000e+00  9.7443497277188290e-02 -6.7413564344274090e-04 0.0000000000000000e+00  9.6903310065620141e-02 8.5531121702519435e-04 0.0000000000000000e+00  9.2554249322055290e-02 2.3870088559649429e-03 0.0000000000000000e+00  1.0720737867690722e-01 7.4793376917037658e-04 0.0000000000000000e+00  1.0667340142408972e-01 -7.8082136180027822e-04 0.0000000000000000e+00  1.0233035826355485e-01 -2.3071145127270339e-03 0.0000000000000000e+00  1.1208726821823595e-01 2.3745166291360047e-03 0.0000000000000000e+00  8.7676534853279933e-02 -6.6835190122455253e-04 0.0000000000000000e+00  8.7136737268504280e-02 8.6104901994085909e-04 0.0000000000000000e+00  8.2788220267341825e-02 2.3923351597594138e-03 0.0000000000000000e+00  1.0232059514327060e-01 2.3809414096324310e-03 0.0000000000000000e+00  9.2563145325058604e-02 -2.3010450850157937e-03 0.0000000000000000e+00  7.7909469928139699e-02 -6.6351431095831219e-04 0.0000000000000000e+00  7.7370281754386330e-02 8.6582348538347641e-04 0.0000000000000000e+00  7.3022511911912044e-02 2.3965078042309531e-03 0.0000000000000000e+00  8.2795601129447602e-02 -2.2957191546185613e-03 0.0000000000000000e+00  6.8142311687689000e-02 -6.6001861045067792e-04 0.0000000000000000e+00  6.7603930319799388e-02 8.6922787402940981e-04 0.0000000000000000e+00  6.3257134490225131e-02 2.3991478480642156e-03 0.0000000000000000e+00  7.3027748602085218e-02 -2.2915330623312032e-03 0.0000000000000000e+00  5.8375047067049254e-02 -6.5828331446866743e-04 0.0000000000000000e+00  5.7837701693444529e-02 8.7085766360999644e-04 0.0000000000000000e+00  5.3492074494204185e-02 2.3998083890159473e-03 0.0000000000000000e+00  6.3259550516261739e-02 -2.2889045854686506e-03 0.0000000000000000e+00  1.4460053884046564e-02 2.4000872622235935e-03 0.0000000000000000e+00  1.4440297761448463e-02 -2.3372323467488968e-03 0.0000000000000000e+00  1.9301770685680855e-02 -6.8337984185339647e-04 0.0000000000000000e+00  1.8770888743139837e-02 8.5991801197740809e-04 0.0000000000000000e+00  2.9076868243872803e-02 7.6090059242878789e-04 0.0000000000000000e+00  2.8535505912959766e-02 -7.6899326421072062e-04 0.0000000000000000e+00  2.4181937400471216e-02 -2.3045684954997670e-03 0.0000000000000000e+00  3.3962735155424577e-02 2.3936216743279341e-03 0.0000000000000000e+00  2.4197092991290192e-02 2.3886489890237368e-03 0.0000000000000000e+00  4.3722213319230714e-02 -2.2898833548493256e-03 0.0000000000000000e+00  4.8607690631843947e-02 -6.5870256279841610e-04 0.0000000000000000e+00  4.8071578783442155e-02 8.7030139041693151e-04 0.0000000000000000e+00  4.3727339892595127e-02 2.3981314479463610e-03 0.0000000000000000e+00  3.8842554120979679e-02 7.6668809538141573e-04 0.0000000000000000e+00  3.9377320059513068e-02 -7.6212556347467274e-04 0.0000000000000000e+00  3.3952840350520257e-02 -2.2942828630081263e-03 0.0000000000000000e+00  5.3491057303890983e-02 -2.2882220818335863e-03 0.0000000000000000e+00  1.2186399480668204e-01 -2.3197557337109468e-03 0.0000000000000000e+00  1.2674344937196860e-01 -6.9321711879092186e-04 0.0000000000000000e+00  1.2620341548266456e-01 8.3641576994966963e-04 0.0000000000000000e+00  1.2185445822661906e-01 2.3681015051837647e-03 0.0000000000000000e+00  1.1697414966561089e-01 7.4143832495045313e-04 0.0000000000000000e+00  1.1751448098585202e-01 -7.8793515687277087e-04 0.0000000000000000e+00  1.1209724510105662e-01 -2.3135030625818826e-03 0.0000000000000000e+00  1.4136406885442751e-01 2.3838260015494332e-03 0.0000000000000000e+00  1.3163190177379447e-01 -2.3283449757509718e-03 0.0000000000000000e+00  1.5207151269449118e-01 5.7536045987536383e-04 0.0000000000000000e+00  1.4384767726577202e-01 -1.1909183470660504e-03 0.0000000000000000e+00  0.0000000000000000e+00 0.0000000000000000e+00 0.0000000000000000e+00  3.7614174363051079e-03 -5.8123928618667743e-04 0.0000000000000000e+00  1.1078764147537185e-02 1.0580719531545757e-03 0.0000000000000000e+00  1.4384660110160125e-01 1.2150480879449402e-03 0.0000000000000000e+00  1.1962996885911230e-02 -1.1715543448974799e-03 0.0000000000000000e+00  1.4801942158971670e-01 1.1909229633430298e-03 0.0000000000000000e+00  7.7869817431682788e-03 -1.1561206867328467e-03 0.0000000000000000e+00  1.3984993385308492e-01 1.1382502813827593e-03 0.0000000000000000e+00  3.1650385124348834e-03 3.5364058365689160e-04 0.0000000000000000e+00  1.5266416373463668e-01 -3.4453685596243098e-04 0.0000000000000000e+00  1.1320725846868829e-01 1.2017561189391383e-03 0.0000000000000000e+00  1.3019038424794269e-01 1.1922477371445908e-03 0.0000000000000000e+00  3.5077825501150926e-02 1.2224824041465994e-03 0.0000000000000000e+00  5.2058830169556626e-02 1.2278978176988070e-03 0.0000000000000000e+00  2.4767950680429689e-02 -1.1308483700508255e-03 0.0000000000000000e+00  6.2141369218563371e-02 -1.1165560983110731e-03 0.0000000000000000e+00  7.1590785746695737e-02 1.2251174287914927e-03 0.0000000000000000e+00  8.1676215705225541e-02 -1.1230710769698712e-03 0.0000000000000000e+00  9.1123390673978497e-02 1.2158929441499940e-03 0.0000000000000000e+00  1.0290818123891819e-01 -1.1354535791460781e-03 0.0000000000000000e+00  4.3143112946987479e-02 -1.1178621055252444e-03 0.0000000000000000e+00  1.2128109894685314e-01 -1.1474024292383259e-03 0.0000000000000000e+00  0.0000000000000000e+00 0.0000000000000000e+00 0.0000000000000000e+00  1.5581777993547311e-01 0.0000000000000000e+00 0.0000000000000000e+00  1.3274505040996523e-01 -1.1577044407726921e-03 0.0000000000000000e+00  1.2073917880663428e-01 1.1967594399065666e-03 0.0000000000000000e+00  5.4608843077686341e-02 -1.1160114927790024e-03 0.0000000000000000e+00  4.2608759012808320e-02 1.2259589176866574e-03 0.0000000000000000e+00  6.1824727651849987e-02 1.2275128076836769e-03 0.0000000000000000e+00  7.4143936067253960e-02 -1.1198212305315205e-03 0.0000000000000000e+00  8.1357008369647710e-02 1.2211040729200476e-03 0.0000000000000000e+00  9.3678381608667927e-02 -1.1296454018059694e-03 0.0000000000000000e+00  1.0344051071309046e-01 1.2082248333806875e-03 0.0000000000000000e+00  2.5312563360460203e-02 1.2167935443941399e-03 0.0000000000000000e+00  3.2522223176717803e-02 -1.1229242024118563e-03 0.0000000000000000e+00  1.1066157840126775e-01 -1.1405522707860125e-03 0.0000000000000000e+00  1.5010689460286143e-02 1.2295686352455830e-03 0.0000000000000000e+00  1.5857298416099064e-02 -1.2472607145847848e-03 0.0000000000000000e+00  1.3995493802365305e-01 -1.2670474184397506e-03 0.0000000000000000e+00  1.1434274597590115e-01 -1.4027661561933533e-03 0.0000000000000000e+00  3.6202759297034835e-02 -1.3805676485439350e-03 0.0000000000000000e+00  7.5464063496025260e-03 1.3564932201074094e-03 0.0000000000000000e+00  1.4523118939285889e-01 1.2351665794126666e-04 0.0000000000000000e+00  1.4750750497175075e-01 -1.2784083915065643e-03 0.0000000000000000e+00  1.0605020107670874e-02 -8.9816714932726080e-05 0.0000000000000000e+00  1.0964733758952339e-01 1.5612252625712691e-03 0.0000000000000000e+00  3.1519876384166493e-02 1.5773154542565290e-03 0.0000000000000000e+00  1.2918710758619423e-01 -1.5103244917839503e-03 0.0000000000000000e+00  5.1049187207134535e-02 -1.4733623028229759e-03 0.0000000000000000e+00  6.5620679381223429e-02 -1.4526940487570314e-03 0.0000000000000000e+00  7.0584902987068876e-02 -1.4757116127942220e-03 0.0000000000000000e+00  8.5155744813789458e-02 -1.4602785673038915e-03 0.0000000000000000e+00  9.0119768555981694e-02 -1.4846679142757628e-03 0.0000000000000000e+00  9.9866998761895059e-02 1.5327295057598082e-03 0.0000000000000000e+00  2.1741464538768743e-02 1.5395835864155151e-03 0.0000000000000000e+00  1.2430579216358796e-01 -2.3213451760498880e-03 0.0000000000000000e+00  4.6164447763693467e-02 -2.2892420267965402e-03 0.0000000000000000e+00  9.9631429402403465e-02 -1.4904489741334901e-03 0.0000000000000000e+00  2.1488956924860719e-02 -1.4955046863301775e-03 0.0000000000000000e+00  1.2429648327940586e-01 2.3666358658348697e-03 0.0000000000000000e+00  4.6168488594576194e-02 2.3988096429763068e-03 0.0000000000000000e+00  5.5933301990470460e-02 2.3998619779183089e-03 0.0000000000000000e+00  6.5698439442871612e-02 2.3986600337289783e-03 0.0000000000000000e+00  7.5463903880788080e-02 2.3956015059558534e-03 0.0000000000000000e+00  8.5229691206436142e-02 2.3910958563244582e-03 0.0000000000000000e+00  9.4995803437947182e-02 2.3855462071160748e-03 0.0000000000000000e+00  1.3406510773518415e-01 2.3668664297442120e-03 0.0000000000000000e+00  1.5304917321666625e-01 1.4128984137294724e-03 0.0000000000000000e+00  2.7588636546066478e-03 1.4863661516529749e-03 0.0000000000000000e+00  1.5302558894381157e-01 -8.8998443778197302e-04 0.0000000000000000e+00  2.6769755663628909e-03 -1.3695748046608646e-03 0.0000000000000000e+00  2.1749037850635991e-02 6.1018316249755484e-04 0.0000000000000000e+00  1.2883074017136639e-01 3.7741526457936984e-04 0.0000000000000000e+00  5.0697813802524493e-02 4.1319425616647359e-04 0.0000000000000000e+00  7.0230869687061104e-02 4.1096346067730677e-04 0.0000000000000000e+00  8.9764133542368313e-02 4.0206726074475829e-04 0.0000000000000000e+00  1.1529637734046541e-01 -8.3563906477053751e-05 0.0000000000000000e+00  3.7161771345533820e-02 -6.0190449833560969e-05 0.0000000000000000e+00  3.0754168337753192e-02 -6.4093739487252761e-05 0.0000000000000000e+00  6.0464320933559690e-02 4.1311422718479242e-04 0.0000000000000000e+00  7.9997482817350266e-02 4.0714519919581390e-04 0.0000000000000000e+00  1.0888859702292329e-01 -7.9323444179959265e-05 0.0000000000000000e+00  9.9881125513301819e-02 6.0585938388098726e-04 0.0000000000000000e+00  1.3848398867717135e-01 3.0107434527278576e-04 0.0000000000000000e+00  4.4979495256468388e-03 1.1371264655512436e-03 0.0000000000000000e+00  4.6282129491813984e-02 -1.3252738684683726e-03 0.0000000000000000e+00  1.2442033230068970e-01 -1.3576473735327434e-03 0.0000000000000000e+00  9.4286880471044929e-02 1.4350366513866902e-03 0.0000000000000000e+00  1.3335418589306067e-01 1.4146580584420165e-03 0.0000000000000000e+00  6.4988346937039157e-02 1.4479511397287850e-03 0.0000000000000000e+00  8.4520509836274890e-02 1.4405496802068788e-03 0.0000000000000000e+00  7.4754332783478386e-02 1.4449879471685077e-03 0.0000000000000000e+00  5.5222554463585295e-02 1.4490271095331199e-03 0.0000000000000000e+00  1.1873230972620477e-01 -1.6001763531341094e-03 0.0000000000000000e+00  4.0592338198853717e-02 -1.5732267594465387e-03 0.0000000000000000e+00  1.0477210964018034e-01 -2.3086999377040169e-03 0.0000000000000000e+00  2.6624796244049488e-02 -2.3007096782224133e-03 0.0000000000000000e+00  1.7569824092709407e-02 1.6781921481639974e-03 0.0000000000000000e+00  2.2258943019752633e-02 -6.3449477701721347e-04 0.0000000000000000e+00  1.0039742671812756e-01 -6.3416200274255745e-04 0.0000000000000000e+00  1.1075724974561865e-01 7.7975496398505477e-04 0.0000000000000000e+00  3.2626429049287434e-02 7.9741658913017196e-04 0.0000000000000000e+00  5.1541474560050926e-02 -6.0392018584456714e-04 0.0000000000000000e+00  1.2967683833056914e-01 -6.4113212668824647e-04 0.0000000000000000e+00  7.1075959198944424e-02 -6.0650128529409278e-04 0.0000000000000000e+00  9.0610077655006185e-02 -6.1560648535082581e-04 0.0000000000000000e+00  1.5016793571384526e-01 -1.3542499225558027e-03 0.0000000000000000e+00  1.2377621866719023e-01 1.4370847865126123e-03 0.0000000000000000e+00  4.5646041351538623e-02 1.4690519100657342e-03 0.0000000000000000e+00  1.2053115907394872e-02 2.3957653018305820e-03 0.0000000000000000e+00  6.4520827737957226e-02 -6.8720001619059033e-04 0.0000000000000000e+00  8.4055154932787271e-02 -6.9447836998901263e-04 0.0000000000000000e+00  1.0536740698811506e-01 -1.5047011468298417e-03 0.0000000000000000e+00  2.7225319188782286e-02 -1.4952930753224063e-03 0.0000000000000000e+00  3.0001379062969739e-02 -1.4746690945152486e-03 0.0000000000000000e+00  1.0814288704045985e-01 -1.4886681605348596e-03 0.0000000000000000e+00  1.2399144921525804e-01 -5.2511478284440966e-04 0.0000000000000000e+00  4.5855845477411103e-02 -4.9298966537147861e-04 0.0000000000000000e+00  6.6280321619454810e-02 5.4668234649056031e-05 0.0000000000000000e+00  8.5813890121080677e-02 4.6858456244617767e-05 0.0000000000000000e+00  2.8788504088235571e-02 1.5755988065095366e-03 0.0000000000000000e+00  1.0691551393092087e-01 1.5630361441092719e-03 0.0000000000000000e+00  9.4874085044993769e-02 -3.9368281714185908e-04 0.0000000000000000e+00  7.5340206661288517e-02 -3.8357651043825525e-04 0.0000000000000000e+00  5.5806086158259494e-02 -3.7928684537389155e-04 0.0000000000000000e+00  1.3394185762315483e-01 -4.2051243495286946e-04 0.0000000000000000e+00  3.7752574730375410e-02 1.5809536234912200e-03 0.0000000000000000e+00  1.1588104881600252e-01 1.5570671839766840e-03 0.0000000000000000e+00  1.7435030292882993e-02 3.5393702627823970e-05 0.0000000000000000e+00  2.6507513777537010e-02 4.8023621127790813e-04 0.0000000000000000e+00  1.0463913290602539e-01 4.7077152050136318e-04 0.0000000000000000e+00  4.1410820892652654e-02 4.8892762796594726e-04 0.0000000000000000e+00  1.1954351722394360e-01 4.6090849506489365e-04 0.0000000000000000e+00  1.8535148162319371e-02 -1.5061408152362281e-03 0.0000000000000000e+00  9.6353682169664376e-02 -1.4883912938697303e-03 0.0000000000000000e+00  7.6819082387335272e-02 -1.4780102265921340e-03 0.0000000000000000e+00  5.7283638301213587e-02 -1.4732022340647906e-03 0.0000000000000000e+00  1.3541929478763856e-01 -1.5212604957269373e-03 0.0000000000000000e+00  8.0353667184911604e-02 -2.2945479668616689e-03 0.0000000000000000e+00  6.0817455358457465e-02 -2.2885325966766519e-03 0.0000000000000000e+00  4.1286199778923144e-02 2.3972800439113233e-03 0.0000000000000000e+00  1.1941256785305651e-01 2.3696685649199963e-03 0.0000000000000000e+00  8.0466500697494170e-02 -3.9431484765902223e-04 0.0000000000000000e+00  6.0932433809348617e-02 -3.8818933617292310e-04 0.0000000000000000e+00  1.3927511234358989e-01 -4.7840069756422895e-04 0.0000000000000000e+00  2.6638545433369278e-02 2.3893046902886054e-03 0.0000000000000000e+00  1.0476223511935666e-01 2.3793564035837021e-03 0.0000000000000000e+00  1.3894033399913264e-01 2.3766229558487128e-03 0.0000000000000000e+00  1.3742082929874858e-01 1.5712404511849789e-03 0.0000000000000000e+00  3.5315347065398038e-02 -6.3191918107364630e-04 0.0000000000000000e+00  1.1345230207626336e-01 -6.5311125401745838e-04 0.0000000000000000e+00  1.4595951588899161e-01 -6.6305260993944717e-04 0.0000000000000000e+00  7.0581137422895596e-02 2.3973213410017082e-03 0.0000000000000000e+00  6.9050900943829666e-02 1.5960578613211471e-03 0.0000000000000000e+00  5.1050862193502342e-02 2.3996156520768395e-03 0.0000000000000000e+00  4.9519564248172852e-02 1.5977502030297111e-03 0.0000000000000000e+00  9.0112710773680049e-02 2.3884179662780778e-03 0.0000000000000000e+00  8.8583090954058169e-02 1.5875030579986884e-03 0.0000000000000000e+00  1.2918098398438288e-01 2.3648240970140649e-03 0.0000000000000000e+00  1.2765016317106964e-01 1.5631312684928585e-03 0.0000000000000000e+00  8.0346762289260062e-02 2.3934917835677677e-03 0.0000000000000000e+00  7.8816889196583195e-02 1.5924348969149932e-03 0.0000000000000000e+00  6.0815837817442250e-02 2.3994975557055666e-03 0.0000000000000000e+00  5.9285125021332805e-02 1.5979651640408460e-03 0.0000000000000000e+00  2.2676934068411869e-03 -7.3164156322555690e-04 0.0000000000000000e+00  1.5357278449203357e-01 6.8561973180816772e-04 0.0000000000000000e+00  5.5276782236927093e-02 6.4971379562382117e-04 0.0000000000000000e+00  7.4809588341864963e-02 6.4563304971249297e-04 0.0000000000000000e+00  1.3341045391435677e-01 6.1345790884316271e-04 0.0000000000000000e+00  1.1990423785024357e-01 -4