<?xml version="1.0"?>
<VTKFile type="UnstructuredGrid"  version="0.1"  >
<UnstructuredGrid>
<Piece  NumberOfPoints="820" NumberOfCells="1464">
<Points>
<DataArray  type="Float64"  NumberOfComponents="3"  format="ascii">0 0.1 0  0 0 0  1 0 0  1 0.1 0  0.5 0 0  0.5 0.1 0  0.25 0 0  0.25 0.1 0  0.75 0.1 0  0.75 0 0  0.375 0.1 0  0.375 0 0  0.125 0 0  0.125 0.1 0  0.625 0 0  0.625 0.1 0  0.875 0.1 0  0.875 0 0  0.6875 0.1 0  0.6875 0 0  0.5625 0 0  0.5625 0.1 0  0.0625 0.1 0  0.0625 0 0  0.1875 0.1 0  0.1875 0 0  0.3125 0 0  0.3125 0.1 0  0.4375 0.1 0  0.4375 0 0  0.8125 0 0  0.8125 0.1 0  0.9375 0.1 0  0.9375 0 0  0.84375 0.05000000000000001 0  0.78125 0.05 0  0.34375 0.05000000000000001 0  0.28125 0.05 0  0.15625 0.05 0  0.21875 0.05000000000000001 0  0 0.05 0  0.09375 0.05000000000000001 0  0.40625 0.05 0  0.46875 0.05000000000000001 0  0.53125 0.05 0  0.59375 0.05000000000000001 0  0.65625 0.05 0  0.71875 0.05000000000000001 0  0.90625 0.05 0  1 0.05 0  0.046875 0.04453125000000001 0  0.953125 0.05546875 0  0.96875 0 0  0.03125 0.1 0  0.03125 0 0  0.96875 0.1 0  1 0.07500000000000001 0  0.875 0.06523437500000001 0  0.8715625 0.03261718750000001 0  0.84375 0 0  0.90625 0.1 0  0.625 0.06523437500000001 0  0.6215625 0.03261718750000001 0  0.59375 0 0  0.6875 0.034765625 0  0.6840625 0.0673828125 0  0.65625 0.1 0  0.71875 0 0  0.5625 0.06523437500000001 0  0.5590625 0.03261718750000001 0  0.53125 0 0  0.65625 0 0  0.59375 0.1 0  0.5 0.06523437500000001 0  0.4965625 0.03261718750000001 0  0.46875 0 0  0.53125 0.1 0  0.4375 0.06523437500000001 0  0.4340625 0.03261718750000001 0  0.40625 0 0  0.46875 0.1 0  0.375 0.06523437500000001 0  0.3715625 0.03261718750000001 0  0.34375 0 0  0.40625 0.1 0  0.09375 0 0  0.09375 0.1 0  0.125 0.06523437500000001 0  0.1215625 0.03261718750000001 0  0.1875 0.034765625 0  0.1840625 0.0673828125 0  0.15625 0.1 0  0.21875 0 0  0.15625 0 0  0.28125 0.1 0  0.3125 0.06523437500000001 0  0.3090625 0.03261718750000001 0  0.28125 0 0  0.25 0.034765625 0  0.2534375 0.0673828125 0  0.21875 0.1 0  0.34375 0.1 0  0.78125 0.1 0  0.8125 0.06523437500000001 0  0.8090625 0.03261718750000001 0  0.78125 0 0  0.75 0.034765625 0  0.7534375 0.0673828125 0  0.71875 0.1 0  0.90625 0 0  0.84375 0.1 0  0.9740776699029127 0.03143583131067961 0  0.921875 0.075 0  0 0.025 0  0.02592233009708738 0.06856416868932039 0  0.0725 0.028515625 0  0.921875 0.025 0  0.078125 0.07500000000000001 0  0.9484670937186905 0.0242372460741816 0  0.05153290628130947 0.07576275392581842 0  0.8963594872172794 0.02643561701079966 0  0.02229817708333334 0.0375 0  0.9777018229166666 0.06250000000000001 0  0.72590087890625 0.025 0  0.8345789124085022 0.025 0  0.22590087890625 0.025 0  0.3345789124085023 0.025 0  0.15996337890625 0.075 0  0.39909912109375 0.075 0  0.4595789124085023 0.025 0  0.52409912109375 0.075 0  0.5845789124085022 0.025 0  0.65996337890625 0.075 0  0.27753662109375 0.075 0  0.77753662109375 0.075 0  0 0.07500000000000001 0  1 0.025 0  0.85090087890625 0.07500000000000001 0  0.77409912109375 0.025 0  0.35090087890625 0.07500000000000001 0  0.27409912109375 0.025 0  0.3970789124085022 0.025 0  0.47590087890625 0.07500000000000001 0  0.5220789124085022 0.025 0  0.60090087890625 0.07500000000000001 0  0.66340087890625 0.025 0  0.16340087890625 0.025 0  0.2095789124085023 0.07500000000000001 0  0.7095789124085022 0.07500000000000001 0  0.0974991439537346 0.02496950333675565 0  0.1029665898617512 0.07685681883640554 0  0.8970334101382489 0.07685681883640554 0  0.7331321502083639 0.0805418246751822 0  0.2331321502083639 0.08054182467518221 0  0.04967773437499999 0.02050781250000001 0  0.9302821601941748 0.04763728762135922 0  0.9453125 0.07773437499999999 0  0.06981448887637284 0.05242311804773303 0  0.703125 0.0173828125 0  0.203125 0.0173828125 0  0.828125 0.08261718750000001 0  0.328125 0.08261718750000001 0  0.4213608787615672 0.08215505604972331 0  0.453125 0.08261718750000001 0  0.5463608787615671 0.08215505604972331 0  0.578125 0.08261718750000001 0  0.6405370048634059 0.0181271643224308 0  0.1405370048634059 0.0181271643224308 0  0.796875 0.1 0  0.296875 0.1 0  0.6389903131525874 0.08261718750000001 0  0.1389903131525873 0.08261718750000001 0  0.796875 0 0  0.296875 0 0  0.359375 0 0  0.421875 0 0  0.484375 0 0  0.546875 0 0  0.609375 0 0  0.859375 0 0  0.984375 0 0  0.015625 0 0  0.9808265015870887 0.08306437698386088 0  0.015625 0.1 0  0.140615310157384 0.03789815460447876 0  0.8258710430305984 0.04237660226422156 0  0.3258710430305984 0.04237660226422154 0  0.4508710430305984 0.04237660226422154 0  0.5758710430305984 0.04237660226422156 0  0.73925254007477 0.05238802290978471 0  0.23925254007477 0.05238802290978471 0  0.19824745992523 0.05238802290978471 0  0.3883710430305984 0.04237660226422155 0  0.5133710430305984 0.04237660226422155 0  0.69824745992523 0.05238802290978471 0  0.6406153101573839 0.03789815460447876 0  0.8875652355519991 0.04398459561477483 0  0.03011990291140283 0.01954869700666445 0  0.2976228417042103 0.07944206017604956 0  0.7976228417042103 0.07944206017604956 0  0.6048261925064409 0.0202852140350185 0  0.8548261925064409 0.0202852140350185 0  0.4173261925064409 0.02028521403501849 0  0.5423261925064409 0.02028521403501849 0  0.479826192506441 0.02028521403501848 0  0.354826192506441 0.02028521403501848 0  0.7612196085333947 0.08469269433495656 0  0.2612196085333947 0.08469269433495656 0  0.671875 0.1 0  0.171875 0.1 0  0.1138156987561534 0.01531102667280419 0  0.1439032206506398 0.06434174268079966 0  0.6439032206506399 0.06434174268079966 0  0.7102169938849521 0.03403655887996306 0  0.2102169938849521 0.03403655887996306 0  0.331272668838501 0.06407394409179688 0  0.8312726688385009 0.06407394409179688 0  0.456272668838501 0.06407394409179688 0  0.5812726688385009 0.06407394409179688 0  0.9626931005513372 0.08290734481438196 0  0.7935362330470901 0.01983307912641665 0  0.2935362330470901 0.01983307912641665 0  0.078125 0 0  0.4143262322415116 0.06583278773374907 0  0.5393262322415115 0.06583278773374907 0  0.6756954193768612 0.08284197013692297 0  0.1756954193768612 0.08284197013692297 0  0.1934564775596677 0.08246105735569852 0  0.6934564775596677 0.0824610573556985 0  0.7948904737904949 0.06168801049385652 0  0.2948904737904949 0.06168801049385652 0  0.42558837890625 0.05 0  0.55058837890625 0.05 0  0.185643310546875 0.0173828125 0  0.685643310546875 0.0173828125 0  0.6085613945093048 0.05928612183988766 0  0.4835613945093048 0.05928612183988766 0  0.3585613945093048 0.05928612183988766 0  0.8585613945093048 0.05928612183988766 0  0.2430157823768409 0.0173828125 0  0.743015782376841 0.0173828125 0  0.11308837890625 0.05 0  0.1710613945093048 0.04071387816011236 0  0.6710613945093048 0.04071387816011236 0  0.2664386054906952 0.04071387816011236 0  0.7664386054906952 0.04071387816011236 0  0.1200872144236349 0.08261718750000001 0  0.618015782376841 0.08261718750000001 0  0.4930157823768409 0.08261718750000001 0  0.3680157823768409 0.08261718750000001 0  0.868015782376841 0.08261718750000001 0  0.515625 0.1 0  0.390625 0.1 0  0.265625 0 0  0.765625 0 0  0.516365031953596 0.05946768293606444 0  0.3913650319535959 0.05946768293606444 0  0.8926135952226929 0.06033018746614476 0  0.171875 0 0  0.671875 0 0  0.890625 0 0  0.8808652108632187 0.0171078614816925 0  0.2274441083295474 0.06456313374723947 0  0.7274441083295474 0.06456313374723946 0  0.9350285939903868 0.06406852472525566 0  0.453125 0 0  0.4433265752246126 0.01710378970181546 0  0.328125 0 0  0.3183265752246126 0.01710378970181546 0  0.578125 0 0  0.5683265752246126 0.01710378970181545 0  0.828125 0 0  0.8183265752246126 0.01710378970181545 0  0.515625 0 0  0.5058265752246126 0.01710378970181545 0  0.390625 0 0  0.3808265752246126 0.01710378970181545 0  0.01564771141956889 0.08260299286276945 0  0.9843522885804311 0.01739700713723054 0  0.3551736619148977 0.03733645281383641 0  0.4801736619148977 0.03733645281383641 0  0.8551736619148977 0.03733645281383642 0  0.7687346279121444 0.06091681090943113 0  0.2687346279121444 0.06091681090943113 0  0.6687653720878556 0.06091681090943113 0  0.1687653720878556 0.06091681090943113 0  0.6051736619148977 0.03733645281383642 0  0.2924478939734164 0.03697522410746614 0  0.7924478939734163 0.03697522410746614 0  0.8719142286486647 0.04906985056606887 0  0.6274213820068905 0.04848945596065109 0  0.4983341418505795 0.04892020701904073 0  0.3733341418505795 0.04892020701904073 0  0.3108341418505795 0.04892020701904073 0  0.8108341418505794 0.04892020701904073 0  0.6242024164762008 0.01640567476785111 0  0.3848561971730207 0.08410836408489761 0  0.5098561971730207 0.08410836408489761 0  0.2598561971730207 0.01589163591510238 0  0.7598561971730207 0.01589163591510238 0  0.890625 0.1 0  0.9582054159658413 0.03874795528975266 0  0.03565822065430611 0.08308352918541601 0  0.9643417793456939 0.016916470814584 0  0 0.0625 0  0.0168287001921521 0.05388159890776699 0  0.0417945840341587 0.06125204471024735 0  0.9831712998078479 0.04611840109223304 0  0.5622607296296599 0.08116332765030569 0  0.4372607296296599 0.08116332765030566 0  0.046875 0.1 0  0.953125 0 0  0.415919189453125 0.03668247284720479 0  0.540919189453125 0.03668247284720479 0  0.0859375 0.01393925506164327 0  0.109375 0.1 0  0.1338555271916189 0.05216484236021472 0  0.953125 0.1 0  0.140625 0 0  0.640625 0 0  0.546875 0.1 0  0.421875 0.1 0  0.203125 0 0  0.703125 0 0  0.046875 0 0  0.234375 0.1 0  0.734375 0.1 0  0.078125 0.1 0  0.921875 0 0  0.921875 0.1 0  0.828125 0.1 0  0.328125 0.1 0  0.453125 0.1 0  0.578125 0.1 0  0.640625 0.1 0  0.140625 0.1 0  0.984375 0.1 0  0.765625 0.1 0  0.265625 0.1 0  0.109375 0 0  0.203125 0.1 0  0.703125 0.1 0  0.234375 0 0  0.734375 0 0  0.609375 0.1 0  0.484375 0.1 0  0.359375 0.1 0  0.859375 0.1 0  0.03162846341645094 0.04971906156616034 0  0.9677597279973049 0.05078312969016881 0  0.8125319459969864 0.08431483734279674 0  0.3125319459969864 0.08431483734279674 0  0.01533347852251798 0.02378565849770013
[...]
<PointData  Vectors="damage"> 
<DataArray  type="Float64"  Name="damage"  NumberOfComponents="3" format="ascii">0.0000000000000000e+00 0.0000000000000000e+00 0.0000000000000000e+00  0.0000000000000000e+00 0.0000000000000000e+00 0.0000000000000000e+00  3.5413131803516612e-01 0.0000000000000000e+00 0.0000000000000000e+00  3.5413131803516612e-01 0.0000000000000000e+00 0.0000000000000000e+00  4.5293505075615098e-04 3.7642798162175760e-04 0.0000000000000000e+00  2.0915726972129255e-04 -1.6464309900196411e-04 0.0000000000000000e+00  2.8586142754734165e-05 -1.6259920987078659e-05 0.0000000000000000e+00  3.8247313368882989e-05 -2.0294549819880043e-05 0.0000000000000000e+00  3.5412431742154837e-01 7.0678787954474336e-05 0.0000000000000000e+00  3.5407148508458774e-01 7.4726169803003705e-05 0.0000000000000000e+00  5.3619005580448222e-05 -3.1713555533368384e-05 0.0000000000000000e+00  4.6990993037703949e-05 -2.7972644683646252e-05 0.0000000000000000e+00  1.2886639746304438e-05 -4.1895497801906934e-06 0.0000000000000000e+00  2.0331661423583407e-05 -8.2501980192030236e-06 0.0000000000000000e+00  3.5404515916641810e-01 1.5365461924785146e-04 0.0000000000000000e+00  3.5411672132123889e-01 1.4995451935038878e-04 0.0000000000000000e+00  3.5412923795549200e-01 1.8134957233265112e-05 0.0000000000000000e+00  3.5410018625895046e-01 2.2158053455694871e-05 0.0000000000000000e+00  3.5412095262389837e-01 1.0735535794032987e-04 0.0000000000000000e+00  3.5405807258070376e-01 1.1133561704823013e-04 0.0000000000000000e+00  3.5402869204767462e-01 2.0388463757625223e-04 0.0000000000000000e+00  3.5410859109583553e-01 1.9567944856020293e-04 0.0000000000000000e+00  1.0513782015901060e-05 -4.0622598206814096e-06 0.0000000000000000e+00  6.1097807468773565e-06 -3.6463944634884152e-08 0.0000000000000000e+00  2.9615713669502039e-05 -1.3924011421749947e-05 0.0000000000000000e+00  2.0409340580092900e-05 -9.8869899355370621e-06 0.0000000000000000e+00  3.7409644135340729e-05 -2.2521746136049758e-05 0.0000000000000000e+00  4.6218182211936000e-05 -2.6533990826745464e-05 0.0000000000000000e+00  6.2776502220130063e-05 -3.6355055332727305e-05 0.0000000000000000e+00  6.0405775662847566e-05 -3.0088939877636972e-05 0.0000000000000000e+00  3.5408552966241152e-01 4.4713638456290444e-05 0.0000000000000000e+00  3.5412710836829070e-01 4.0681744245236043e-05 0.0000000000000000e+00  3.5413058137200021e-01 3.8541065840532117e-06 0.0000000000000000e+00  3.5411542174762839e-01 7.8977517510135805e-06 0.0000000000000000e+00  3.5411050376282938e-01 2.9674499056611605e-05 0.0000000000000000e+00  3.5410209845778462e-01 5.6100684738817969e-05 0.0000000000000000e+00  4.6006326530835275e-05 -2.7481915915834170e-05 0.0000000000000000e+00  3.7621602388008715e-05 -2.1523163042831542e-05 0.0000000000000000e+00  2.0815169954774138e-05 -8.8189303370872764e-06 0.0000000000000000e+00  2.9215546795406358e-05 -1.5027690327531414e-05 0.0000000000000000e+00  0.0000000000000000e+00 0.0000000000000000e+00 0.0000000000000000e+00  1.2383906326519873e-05 -3.7101183290570072e-06 0.0000000000000000e+00  5.3928239022951052e-05 -3.2093245252501649e-05 0.0000000000000000e+00  6.6136466539612517e-05 -3.5568815037211945e-05 0.0000000000000000e+00  3.5406108758469645e-01 2.2414092180853343e-04 0.0000000000000000e+00  3.5407746002878476e-01 1.7456393402069277e-04 0.0000000000000000e+00  3.5408532242615487e-01 1.2936781536682538e-04 0.0000000000000000e+00  3.5409371120588390e-01 8.9642926957266214e-05 0.0000000000000000e+00  3.5411892341262113e-01 1.1102050622272102e-05 0.0000000000000000e+00  3.5413131803516612e-01 0.0000000000000000e+00 0.0000000000000000e+00  5.8277341900541871e-06 -8.9405185051030038e-07 0.0000000000000000e+00  3.5412592063476894e-01 2.5951548396772167e-06 0.0000000000000000e+00  3.5412306606976524e-01 3.7955166916747350e-06 0.0000000000000000e+00  5.5231895602428064e-06 -2.4847541629596954e-06 0.0000000000000000e+00  3.1559673158036772e-06 9.4444471107477543e-07 0.0000000000000000e+00  3.5413087890959039e-01 4.0482195334130461e-07 0.0000000000000000e+00  3.5413131803516612e-01 0.0000000000000000e+00 0.0000000000000000e+00  3.5411910416888775e-01 1.8797104499863440e-05 0.0000000000000000e+00  3.5410910761424402e-01 2.1208564464565646e-05 0.0000000000000000e+00  3.5409275271067747e-01 3.2515618473049653e-05 0.0000000000000000e+00  3.5412998512985056e-01 9.8627115881516567e-06 0.0000000000000000e+00  3.5409207324464770e-01 1.5088039537331955e-04 0.0000000000000000e+00  3.5406830559148256e-01 1.5446704911021197e-04 0.0000000000000000e+00  3.5403822163043813e-01 1.7709960489273240e-04 0.0000000000000000e+00  3.5407995651474694e-01 1.0944024154863004e-04 0.0000000000000000e+00  3.5410001080918335e-01 1.1035822769831251e-04 0.0000000000000000e+00  3.5411897165116540e-01 1.2794353262113144e-04 0.0000000000000000e+00  3.5406470569344806e-01 9.2226615853811044e-05 0.0000000000000000e+00  3.5408463492496522e-01 1.9780475316183511e-04 0.0000000000000000e+00  3.5405771677509934e-01 2.0355746081195190e-04 0.0000000000000000e+00  3.5400641305830188e-01 2.4423943847410521e-04 0.0000000000000000e+00  3.5405163659795796e-01 1.3185488615514887e-04 0.0000000000000000e+00  3.5411382128944341e-01 1.7297534475353639e-04 0.0000000000000000e+00  1.3841737004669283e-04 -4.7476433604683264e-05 0.0000000000000000e+00  2.3738162301938399e-04 -2.2974265155574910e-05 0.0000000000000000e+00  8.1565883636363186e-05 -1.8172222954274334e-05 0.0000000000000000e+00  3.5409000596081236e-01 2.1029246268031916e-04 0.0000000000000000e+00  5.8715396118586787e-05 -3.4505187418482097e-05 0.0000000000000000e+00  5.7381141544065028e-05 -3.2552429413474759e-05 0.0000000000000000e+00  5.2445791314614160e-05 -2.9994435215377806e-05 0.0000000000000000e+00  7.5233837533111592e-05 -4.3463018279919970e-05 0.0000000000000000e+00  5.1118050492908432e-05 -3.0511202283456017e-05 0.0000000000000000e+00  4.8555709171879822e-05 -2.9116302224122634e-05 0.0000000000000000e+00  4.2064299771387925e-05 -2.5376074493585639e-05 0.0000000000000000e+00  5.7486980066577141e-05 -3.3742414727246052e-05 0.0000000000000000e+00  9.3974315015425202e-06 -1.8572778537407564e-06 0.0000000000000000e+00  1.5461975318186240e-05 -5.9379647044205354e-06 0.0000000000000000e+00  1.7700573426326892e-05 -6.7126466821319962e-06 0.0000000000000000e+00  1.4923319833188023e-05 -5.1085311648697388e-06 0.0000000000000000e+00  2.3656952321085229e-05 -1.1229097694970173e-05 0.0000000000000000e+00  2.6089262275811672e-05 -1.2205855465141246e-05 0.0000000000000000e+00  2.5056050764418404e-05 -1.0940699497809019e-05 0.0000000000000000e+00  2.4415852274389821e-05 -1.3038279841269221e-05 0.0000000000000000e+00  1.6561303033083963e-05 -6.9095031763745141e-06 0.0000000000000000e+00  4.2317099309420172e-05 -2.3486412295082652e-05 0.0000000000000000e+00  4.3121723406800462e-05 -2.5216305541228610e-05 0.0000000000000000e+00  3.9862046076172566e-05 -2.3576522423606077e-05 0.0000000000000000e+00  3.2914793114677906e-05 -1.9454415684986443e-05 0.0000000000000000e+00  3.1990307522698153e-05 -1.7674261567158494e-05 0.0000000000000000e+00  3.5508084468643973e-05 -1.9348444741074787e-05 0.0000000000000000e+00  3.4009585508276993e-05 -1.7072336547793643e-05 0.0000000000000000e+00  4.9955531820289872e-05 -2.9325323166896053e-05 0.0000000000000000e+00  3.5412582373630364e-01 5.4774327762828164e-05 0.0000000000000000e+00  3.5411258914610394e-01 4.1451647486369683e-05 0.0000000000000000e+00  3.5409853004190539e-01 4.4267629555670353e-05 0.0000000000000000e+00  3.5407839134191610e-01 5.8819666598153047e-05 0.0000000000000000e+00  3.5408990374440957e-01 7.2722030310464411e-05 0.0000000000000000e+00  3.5410738064843994e-01 6.9594294925950115e-05 0.0000000000000000e+00  3.5412274062315058e-01 8.8201313857521872e-05 0.0000000000000000e+00  3.5410778416411320e-01 1.3964842395386052e-05 0.0000000000000000e+00  3.5412820829843161e-01 2.8378973380679300e-05 0.0000000000000000e+00  3.5412699590439933e-01 1.3866433810226521e-06 0.0000000000000000e+00  3.5412562337789444e-01 6.9283884703779363e-06 0.0000000000000000e+00  0.0000000000000000e+00 0.0000000000000000e+00 0.0000000000000000e+00  3.5601641953612931e-06 -9.2297360470710327e-07 0.0000000000000000e+00  8.5152851851116021e-06 -1.5184027261145765e-06 0.0000000000000000e+00  3.5411639421174018e-01 8.9730123535693278e-06 0.0000000000000000e+00  1.1556232544589134e-05 -3.7895204367606444e-06 0.0000000000000000e+00  3.5412143024706777e-01 4.6188377742126745e-06 0.0000000000000000e+00  7.5968927677753398e-06 -2.3630217717780675e-06 0.0000000000000000e+00  3.5411190297814477e-01 1.4608411412379661e-05 0.0000000000000000e+00  2.5423142527855572e-06 1.9399740641233231e-09 0.0000000000000000e+00  3.5412923394241613e-01 2.7244360055841664e-07 0.0000000000000000e+00  3.5408048063614395e-01 8.6630008647800875e-05 0.0000000000000000e+00  3.5409999854264484e-01 3.4282965307315738e-05 0.0000000000000000e+00  2.7826310000451447e-05 -1.4766915204782206e-05 0.0000000000000000e+00  4.2796217577010928e-05 -2.5661475804516050e-05 0.0000000000000000e+00  2.3397746090741237e-05 -1.0198122252770002e-05 0.0000000000000000e+00  5.4709302560566080e-05 -3.2399806494398295e-05 0.0000000000000000e+00  6.3959179977787843e-05 -3.0293337083779593e-05 0.0000000000000000e+00  3.5407610359088837e-01 2.2156859561350359e-04 0.0000000000000000e+00  3.5405668081661468e-01 1.8272862980204675e-04 0.0000000000000000e+00  3.5410245652476902e-01 1.2601945271437209e-04 0.0000000000000000e+00  3.9423620318883261e-05 -2.2138294221797971e-05 0.0000000000000000e+00  3.5411356716315973e-01 5.7100221190332433e-05 0.0000000000000000e+00  0.0000000000000000e+00 0.0000000000000000e+00 0.0000000000000000e+00  3.5413131803516612e-01 0.0000000000000000e+00 0.0000000000000000e+00  3.5411989467467686e-01 2.6304329667395278e-05 0.0000000000000000e+00  3.5408900979023067e-01 6.0786773293282249e-05 0.0000000000000000e+00  4.8830780273158244e-05 -2.9009919796102046e-05 0.0000000000000000e+00  3.4344094045776350e-05 -1.9769906799313190e-05 0.0000000000000000e+00  5.1766523799051867e-05 -3.0681410644397697e-05 0.0000000000000000e+00  6.9153738598525555e-05 -4.2800789372952803e-05 0.0000000000000000e+00  3.5401702636987387e-01 2.4784819671557634e-04 0.0000000000000000e+00  3.5409650574535956e-01 1.6840692633326266e-04 0.0000000000000000e+00  3.5406973293612781e-01 1.2563691249632878e-04 0.0000000000000000e+00  1.9661710664066532e-05 -8.5057200212965448e-06 0.0000000000000000e+00  3.0303377921683884e-05 -1.5097048162701295e-05 0.0000000000000000e+00  3.5410726047878238e-01 9.4232285789374806e-05 0.0000000000000000e+00  1.1400374107020542e-05 -2.9856350326031288e-06 0.0000000000000000e+00  1.5335975073751794e-05 -5.5120687506166879e-06 0.0000000000000000e+00  3.5412411910650582e-01 1.2421550005214182e-05 0.0000000000000000e+00  3.5411259663976147e-01 8.0328099010055587e-05 0.0000000000000000e+00  3.4041216883342647e-05 -1.7760917244948655e-05 0.0000000000000000e+00  5.4897653814507130e-06 -1.4934326330733364e-07 0.0000000000000000e+00  3.5412182247646962e-01 6.2724604881052111e-06 0.0000000000000000e+00  3.5412778522641003e-01 2.9964323439097506e-06 0.0000000000000000e+00  9.2323548321952720e-06 -2.3158779701126093e-06 0.0000000000000000e+00  3.5407192553018896e-01 1.0056992076595969e-04 0.0000000000000000e+00  2.4089711862416571e-05 -1.2121099439002578e-05 0.0000000000000000e+00  3.5412092579577337e-01 3.4584117976678617e-05 0.0000000000000000e+00  4.6600993630094512e-05 -2.7332271499823890e-05 0.0000000000000000e+00  5.8034293806040397e-05 -3.4037856068039014e-05 0.0000000000000000e+00  6.3470574425780421e-05 -3.7351222555247332e-05 0.0000000000000000e+00  3.5409322698090245e-01 2.0775309993007477e-04 0.0000000000000000e+00  3.5409934196390314e-01 1.8527583850071704e-04 0.0000000000000000e+00  3.5406106374064034e-01 1.4161960022031437e-04 0.0000000000000000e+00  1.6207400276532903e-05 -6.1580779037536047e-06 0.0000000000000000e+00  3.5412650819919983e-01 4.7512153933787783e-05 0.0000000000000000e+00  4.4290784041423525e-05 -2.5036688479385141e-05 0.0000000000000000e+00  3.5410562074083174e-01 1.4037603841135165e-04 0.0000000000000000e+00  2.1024999169786707e-05 -8.6407126622840276e-06 0.0000000000000000e+00  3.5408193474631738e-01 5.1518094397178425e-05 0.0000000000000000e+00  3.5140054047963546e-05 -2.1011192180673000e-05 0.0000000000000000e+00  4.4479280363771511e-05 -2.6723374258736959e-05 0.0000000000000000e+00  5.5870501776093297e-05 -3.0522569728693283e-05 0.0000000000000000e+00  1.1708462971794141e-04 1.0410066449907990e-05 0.0000000000000000e+00  3.5402021962666302e-01 2.2093812352455769e-04 0.0000000000000000e+00  3.5404184635296326e-01 1.6511246960163939e-04 0.0000000000000000e+00  3.5409645420969155e-01 2.7060927534836834e-05 0.0000000000000000e+00  3.5412690415088582e-01 2.1733690143301144e-06 0.0000000000000000e+00  1.7128850539666012e-06 9.1026470370951245e-07 0.0000000000000000e+00  3.5413038228040672e-01 -1.0175366589994992e-07 0.0000000000000000e+00  2.9373524427617817e-06 -1.5345625504368900e-06 0.0000000000000000e+00  1.7774865129041494e-05 -6.9224232256347553e-06 0.0000000000000000e+00  3.5410514513673941e-01 3.6811633412592475e-05 0.0000000000000000e+00  4.2997299035135448e-05 -2.5573054279815642e-05 0.0000000000000000e+00  6.0411220368285748e-05 -3.3414106546594954e-05 0.0000000000000000e+00  3.5406918358624767e-01 1.8877988395796141e-04 0.0000000000000000e+00  3.5409773888925422e-01 7.7822094965200120e-05 0.0000000000000000e+00  3.2196488369945932e-05 -1.7262509152404677e-05 0.0000000000000000e+00  2.6676132561191167e-05 -1.3016396617997875e-05 0.0000000000000000e+00  5.1348805162680056e-05 -3.0701171781325353e-05 0.0000000000000000e+00  3.5398318057505823e-01 2.5175646698488068e-04 0.0000000000000000e+00  3.5409239312892477e-01 1.0193264595447670e-04 0.0000000000000000e+00  3.5407486840055874e-01 1.4066681814453339e-04 0.0000000000000000e+00  3.5411484258591641e-01 1.6035592818891092e-05 0.0000000000000000e+00  3.2286484390789908e-06 3.8261088802722475e-07 0.0000000000000000e+00  4.2449626751294567e-05 -2.4328497320514310e-05 0.0000000000000000e+00  3.5411732236203430e-01 4.7531836040748339e-05 0.0000000000000000e+00  3.5405643827885169e-01 1.6735715109983336e-04 0.0000000000000000e+00  3.5410217865028026e-01 2.7262997313492567e-05 0.0000000000000000e+00  5.4738991369529054e-05 -3.1570847557640422e-05 0.0000000000000000e+00  3.5404027961169821e-01 2.2187512129688309e-04 0.0000000000000000e+00  7.9037688366985140e-05 -1.9754847290189779e-05 0.0000000000000000e+00  4.5342925212855589e-05 -2.7246890261780148e-05 0.0000000000000000e+00  3.5411703153544916e-01 6.5091937468391480e-05 0.0000000000000000e+00  3.8200276230326265e-05 -2.0843066731746871e-05 0.0000000000000000e+00  3.5411997332495987e-01 1.1745382787063395e-04 0.0000000000000000e+00  2.7356180429850247e-05 -1.2403013928220034e-05 0.0000000000000000e+00  1.2735980390186701e-05 -3.8437985103332628e-06 0.0000000000000000e+00  2.0271127920654287e-05 -8.2911407268489132e-06 0.0000000000000000e+00  3.5409356195918673e-01 1.3744266405661695e-04 0.0000000000000000e+00  3.5408308972127411e-01 9.5437943697166081e-05 0.0000000000000000e+00  2.6594115248260598e-05 -1.3505838263704366e-05 0.0000000000000000e+00  4.5470034897235163e-05 -2.6912899715033100e-05 0.0000000000000000e+00  3.5411411963343398e-01 3.3866191714565566e-05 0.0000000000000000e+00  6.1956188716372730e-05 -3.6331639255487867e-05 0.0000000000000000e+00  3.5408640203025599e-01 1.8360185358321689e-04 0.0000000000000000e+00  3.5412938814151823e-01 9.6273605966213577e-07 0.0000000000000000e+00  3.5409017720486802e-01 5.1818369505873806e-05 0.0000000000000000e+00  3.6548574956944064e-05 -2.1520817016108031e-05 0.0000000000000000e+00  7.7216072488107104e-06 -8.7357551706184262e-07 0.0000000000000000e+00  5.5812509224690451e-05 -3.3029522569834049e-05 0.0000000000000000e+00  3.5407925005745916e-01 2.1444689760883074e-04 0.0000000000000000e+00  3.5410905098930995e-01 1.1533196544670693e-04 0.0000000000000000e+00  2.6315689071532399e-05 -1.2032144794864820e-05 0.0000000000000000e+00  2.8772440969102282e-05 -1.3768362442909948e-05 0.0000000000000000e+00  3.5411036698579879e-01 1.0395204408322855e-04 0.0000000000000000e+00  3.5410915093773049e-01 4.9302812956534173e-05 0.0000000000000000e+00  4.0494690730169190e-05 -2.3361923717482677e-05 0.0000000000000000e+00  5.6293420789667004e-05 -3.3110873529977363e-05 0.0000000000000000e+00  3.5407015749611315e-01 2.0858999557948983e-04 0.0000000000000000e+00  2.1831153032166408e-05 -1.0366379497401030e-05 0.0000000000000000e+00  3.5406870614702785e-01 1.1150088482068673e-04 0.0000000000000000e+00  3.5408601615974689e-01 1.6312416221129223e-04 0.0000000000000000e+00  7.3593273796501867e-05 -4.0375264343057127e-05 0.0000000000000000e+00  4.8631910172078360e-05 -2.9066222056399631e-05 0.0000000000000000e+00  3.5411548393724601e-01 2.4158485843524843e-05 0.0000000000000000e+00  2.9377940355272040e-05 -1.6242326247850507e-05 0.0000000000000000e+00  3.5407937237895543e-01 7.7442688013378672e-05 0.0000000000000000e+00  1.4997431213982521e-05 -5.1272179288381650e-06 0.0000000000000000e+00  2.2009917604977481e-05 -9.8511228623146310e-06 0.0000000000000000e+00  3.5408125531130352e-01 1.1982523001165383e-04 0.0000000000000000e+00  3.4769428033766341e-05 -1.9623677195760353e-05 0.0000000000000000e+00  3.5409548393829227e-01 6.3850753791211572e-05 0.0000000000000000e+00  1.8260294391452786e-05 -7.0728157761091342e-06 0.0000000000000000e+00  3.5410366223224793e-01 1.5550645563874077e-04 0.0000000000000000e+00  9.0750612835367885e-05 -6.1344353650696172e-05 0.0000000000000000e+00  5.1515477289667577e-05 -3.0595754164754810e-05 0.0000000000000000e+00  3.5412363855522250e-01 2.0526644595616792e-05 0.0000000000000000e+00  3.5401105630320040e-01 1.6753257031392621e-04 0.0000000000000000e+00  5.5498184117164585e-05 -3.2753932113858358e-05 0.0000000000000000e+00  3.0731899364433818e-05 -1.7866810071889628e-05 0.0000000000000000e+00  3.5407490713958045e-01 6.6548764917553546e-05 0.0000000000000000e+00  3.5404274613998604e-01 2.3282455264890412e-04 0.0000000000000000e+00  5.2718154596381824e-05 -3.1441051240208771e-05 0.0000000000000000e+00  3.5411963229862209e-01 1.4081289790861780e-05 0.0000000000000000e+00  1.8471143620976026e-05 -8.3665847783189292e-06 0.0000000000000000e+00  3.5405480848459264e-01 1.2140512500946076e-04 0.0000000000000000e+00  3.5410396114401138e-01 1.7785657597902564e-05 0.0000000000000000e+00  3.5410645389737505e-01 1.9313788103054008e-05 0.0000000000000000e+00  3.1748143922861457e-05 -1.6521649054612529e-05 0.0000000000000000e+00  3.5410306506869521e-01 8.4046366768955716e-05 0.0000000000000000e+00  3.5412500249234707e-01 4.8580165107580740e-06 0.0000000000000000e+00  6.7594341884423919e-05 -2.7408395299672098e-05 0.0000000000000000e+00  6.0135500624843649e-05 -3.1286255713229174e-05 0.0000000000000000e+00  3.9711057456717559e-05 -2.3974434227240886e-05 0.0000000000000000e+00  3.9812906299469674e-05 -2.3816454242814441e-05 0.0000000000000000e+00  3.5403399198360663e-01 1.9004433394847044e-04 0.0000000000000000e+00  3.5404656645851323e-01 1.9679258984074482e-04 0.0000000000000000e+00  3.5408909904389113e-01 3.8419488625383555e-05 0.0000000000000000e+00  3.5409382904053971e-01 4.1181990131675953e-05 0.0000000000000000e+00  3.5397099899246359e-01 2.8355941816226188e-04 0.0000000000000000e+00  3.5378925593209232e-01 2.3075117096831534e-04 0.0000000000000000e+00  4.9604619516576014e-05 -2.9064437054094140e-05 0.0000000000000000e+00  4.9008099973312285e-05 -2.9209951486054101e-05 0.0000000000000000e+00  2.3024860545655707e-06 -8.4509836819960784e-07 0.0000000000000000e+00  3.5412824202152587e-01 1.0202631614747500e-06 0.0000000000000000e+00  4.6614893903125103e-05 -2.7969473993252579e-05 0.0000000000000000e+00  7.7262027076782975e-05 -3.1106984399202483e-05 0.0000000000000000e+00  3.5410786494739921e-01 2.6243866847280127e-05 0.0000000000000000e+00  3.5410580365714