<?xml version="1.0"?>
<VTKFile type="UnstructuredGrid"  version="0.1"  >
<UnstructuredGrid>
<Piece  NumberOfPoints="820" NumberOfCells="1464">
<Points>
<DataArray  type="Float64"  NumberOfComponents="3"  format="ascii">0 0.1 0  0 0 0  1 0 0  1 0.1 0  0.5 0 0  0.5 0.1 0  0.25 0 0  0.25 0.1 0  0.75 0.1 0  0.75 0 0  0.375 0.1 0  0.375 0 0  0.125 0 0  0.125 0.1 0  0.625 0 0  0.625 0.1 0  0.875 0.1 0  0.875 0 0  0.6875 0.1 0  0.6875 0 0  0.5625 0 0  0.5625 0.1 0  0.0625 0.1 0  0.0625 0 0  0.1875 0.1 0  0.1875 0 0  0.3125 0 0  0.3125 0.1 0  0.4375 0.1 0  0.4375 0 0  0.8125 0 0  0.8125 0.1 0  0.9375 0.1 0  0.9375 0 0  0.84375 0.05000000000000001 0  0.78125 0.05 0  0.34375 0.05000000000000001 0  0.28125 0.05 0  0.15625 0.05 0  0.21875 0.05000000000000001 0  0 0.05 0  0.09375 0.05000000000000001 0  0.40625 0.05 0  0.46875 0.05000000000000001 0  0.53125 0.05 0  0.59375 0.05000000000000001 0  0.65625 0.05 0  0.71875 0.05000000000000001 0  0.90625 0.05 0  1 0.05 0  0.046875 0.04453125000000001 0  0.953125 0.05546875 0  0.96875 0 0  0.03125 0.1 0  0.03125 0 0  0.96875 0.1 0  1 0.07500000000000001 0  0.875 0.06523437500000001 0  0.8715625 0.03261718750000001 0  0.84375 0 0  0.90625 0.1 0  0.625 0.06523437500000001 0  0.6215625 0.03261718750000001 0  0.59375 0 0  0.6875 0.034765625 0  0.6840625 0.0673828125 0  0.65625 0.1 0  0.71875 0 0  0.5625 0.06523437500000001 0  0.5590625 0.03261718750000001 0  0.53125 0 0  0.65625 0 0  0.59375 0.1 0  0.5 0.06523437500000001 0  0.4965625 0.03261718750000001 0  0.46875 0 0  0.53125 0.1 0  0.4375 0.06523437500000001 0  0.4340625 0.03261718750000001 0  0.40625 0 0  0.46875 0.1 0  0.375 0.06523437500000001 0  0.3715625 0.03261718750000001 0  0.34375 0 0  0.40625 0.1 0  0.09375 0 0  0.09375 0.1 0  0.125 0.06523437500000001 0  0.1215625 0.03261718750000001 0  0.1875 0.034765625 0  0.1840625 0.0673828125 0  0.15625 0.1 0  0.21875 0 0  0.15625 0 0  0.28125 0.1 0  0.3125 0.06523437500000001 0  0.3090625 0.03261718750000001 0  0.28125 0 0  0.25 0.034765625 0  0.2534375 0.0673828125 0  0.21875 0.1 0  0.34375 0.1 0  0.78125 0.1 0  0.8125 0.06523437500000001 0  0.8090625 0.03261718750000001 0  0.78125 0 0  0.75 0.034765625 0  0.7534375 0.0673828125 0  0.71875 0.1 0  0.90625 0 0  0.84375 0.1 0  0.9740776699029127 0.03143583131067961 0  0.921875 0.075 0  0 0.025 0  0.02592233009708738 0.06856416868932039 0  0.0725 0.028515625 0  0.921875 0.025 0  0.078125 0.07500000000000001 0  0.9484670937186905 0.0242372460741816 0  0.05153290628130947 0.07576275392581842 0  0.8963594872172794 0.02643561701079966 0  0.02229817708333334 0.0375 0  0.9777018229166666 0.06250000000000001 0  0.72590087890625 0.025 0  0.8345789124085022 0.025 0  0.22590087890625 0.025 0  0.3345789124085023 0.025 0  0.15996337890625 0.075 0  0.39909912109375 0.075 0  0.4595789124085023 0.025 0  0.52409912109375 0.075 0  0.5845789124085022 0.025 0  0.65996337890625 0.075 0  0.27753662109375 0.075 0  0.77753662109375 0.075 0  0 0.07500000000000001 0  1 0.025 0  0.85090087890625 0.07500000000000001 0  0.77409912109375 0.025 0  0.35090087890625 0.07500000000000001 0  0.27409912109375 0.025 0  0.3970789124085022 0.025 0  0.47590087890625 0.07500000000000001 0  0.5220789124085022 0.025 0  0.60090087890625 0.07500000000000001 0  0.66340087890625 0.025 0  0.16340087890625 0.025 0  0.2095789124085023 0.07500000000000001 0  0.7095789124085022 0.07500000000000001 0  0.0974991439537346 0.02496950333675565 0  0.1029665898617512 0.07685681883640554 0  0.8970334101382489 0.07685681883640554 0  0.7331321502083639 0.0805418246751822 0  0.2331321502083639 0.08054182467518221 0  0.04967773437499999 0.02050781250000001 0  0.9302821601941748 0.04763728762135922 0  0.9453125 0.07773437499999999 0  0.06981448887637284 0.05242311804773303 0  0.703125 0.0173828125 0  0.203125 0.0173828125 0  0.828125 0.08261718750000001 0  0.328125 0.08261718750000001 0  0.4213608787615672 0.08215505604972331 0  0.453125 0.08261718750000001 0  0.5463608787615671 0.08215505604972331 0  0.578125 0.08261718750000001 0  0.6405370048634059 0.0181271643224308 0  0.1405370048634059 0.0181271643224308 0  0.796875 0.1 0  0.296875 0.1 0  0.6389903131525874 0.08261718750000001 0  0.1389903131525873 0.08261718750000001 0  0.796875 0 0  0.296875 0 0  0.359375 0 0  0.421875 0 0  0.484375 0 0  0.546875 0 0  0.609375 0 0  0.859375 0 0  0.984375 0 0  0.015625 0 0  0.9808265015870887 0.08306437698386088 0  0.015625 0.1 0  0.140615310157384 0.03789815460447876 0  0.8258710430305984 0.04237660226422156 0  0.3258710430305984 0.04237660226422154 0  0.4508710430305984 0.04237660226422154 0  0.5758710430305984 0.04237660226422156 0  0.73925254007477 0.05238802290978471 0  0.23925254007477 0.05238802290978471 0  0.19824745992523 0.05238802290978471 0  0.3883710430305984 0.04237660226422155 0  0.5133710430305984 0.04237660226422155 0  0.69824745992523 0.05238802290978471 0  0.6406153101573839 0.03789815460447876 0  0.8875652355519991 0.04398459561477483 0  0.03011990291140283 0.01954869700666445 0  0.2976228417042103 0.07944206017604956 0  0.7976228417042103 0.07944206017604956 0  0.6048261925064409 0.0202852140350185 0  0.8548261925064409 0.0202852140350185 0  0.4173261925064409 0.02028521403501849 0  0.5423261925064409 0.02028521403501849 0  0.479826192506441 0.02028521403501848 0  0.354826192506441 0.02028521403501848 0  0.7612196085333947 0.08469269433495656 0  0.2612196085333947 0.08469269433495656 0  0.671875 0.1 0  0.171875 0.1 0  0.1138156987561534 0.01531102667280419 0  0.1439032206506398 0.06434174268079966 0  0.6439032206506399 0.06434174268079966 0  0.7102169938849521 0.03403655887996306 0  0.2102169938849521 0.03403655887996306 0  0.331272668838501 0.06407394409179688 0  0.8312726688385009 0.06407394409179688 0  0.456272668838501 0.06407394409179688 0  0.5812726688385009 0.06407394409179688 0  0.9626931005513372 0.08290734481438196 0  0.7935362330470901 0.01983307912641665 0  0.2935362330470901 0.01983307912641665 0  0.078125 0 0  0.4143262322415116 0.06583278773374907 0  0.5393262322415115 0.06583278773374907 0  0.6756954193768612 0.08284197013692297 0  0.1756954193768612 0.08284197013692297 0  0.1934564775596677 0.08246105735569852 0  0.6934564775596677 0.0824610573556985 0  0.7948904737904949 0.06168801049385652 0  0.2948904737904949 0.06168801049385652 0  0.42558837890625 0.05 0  0.55058837890625 0.05 0  0.185643310546875 0.0173828125 0  0.685643310546875 0.0173828125 0  0.6085613945093048 0.05928612183988766 0  0.4835613945093048 0.05928612183988766 0  0.3585613945093048 0.05928612183988766 0  0.8585613945093048 0.05928612183988766 0  0.2430157823768409 0.0173828125 0  0.743015782376841 0.0173828125 0  0.11308837890625 0.05 0  0.1710613945093048 0.04071387816011236 0  0.6710613945093048 0.04071387816011236 0  0.2664386054906952 0.04071387816011236 0  0.7664386054906952 0.04071387816011236 0  0.1200872144236349 0.08261718750000001 0  0.618015782376841 0.08261718750000001 0  0.4930157823768409 0.08261718750000001 0  0.3680157823768409 0.08261718750000001 0  0.868015782376841 0.08261718750000001 0  0.515625 0.1 0  0.390625 0.1 0  0.265625 0 0  0.765625 0 0  0.516365031953596 0.05946768293606444 0  0.3913650319535959 0.05946768293606444 0  0.8926135952226929 0.06033018746614476 0  0.171875 0 0  0.671875 0 0  0.890625 0 0  0.8808652108632187 0.0171078614816925 0  0.2274441083295474 0.06456313374723947 0  0.7274441083295474 0.06456313374723946 0  0.9350285939903868 0.06406852472525566 0  0.453125 0 0  0.4433265752246126 0.01710378970181546 0  0.328125 0 0  0.3183265752246126 0.01710378970181546 0  0.578125 0 0  0.5683265752246126 0.01710378970181545 0  0.828125 0 0  0.8183265752246126 0.01710378970181545 0  0.515625 0 0  0.5058265752246126 0.01710378970181545 0  0.390625 0 0  0.3808265752246126 0.01710378970181545 0  0.01564771141956889 0.08260299286276945 0  0.9843522885804311 0.01739700713723054 0  0.3551736619148977 0.03733645281383641 0  0.4801736619148977 0.03733645281383641 0  0.8551736619148977 0.03733645281383642 0  0.7687346279121444 0.06091681090943113 0  0.2687346279121444 0.06091681090943113 0  0.6687653720878556 0.06091681090943113 0  0.1687653720878556 0.06091681090943113 0  0.6051736619148977 0.03733645281383642 0  0.2924478939734164 0.03697522410746614 0  0.7924478939734163 0.03697522410746614 0  0.8719142286486647 0.04906985056606887 0  0.6274213820068905 0.04848945596065109 0  0.4983341418505795 0.04892020701904073 0  0.3733341418505795 0.04892020701904073 0  0.3108341418505795 0.04892020701904073 0  0.8108341418505794 0.04892020701904073 0  0.6242024164762008 0.01640567476785111 0  0.3848561971730207 0.08410836408489761 0  0.5098561971730207 0.08410836408489761 0  0.2598561971730207 0.01589163591510238 0  0.7598561971730207 0.01589163591510238 0  0.890625 0.1 0  0.9582054159658413 0.03874795528975266 0  0.03565822065430611 0.08308352918541601 0  0.9643417793456939 0.016916470814584 0  0 0.0625 0  0.0168287001921521 0.05388159890776699 0  0.0417945840341587 0.06125204471024735 0  0.9831712998078479 0.04611840109223304 0  0.5622607296296599 0.08116332765030569 0  0.4372607296296599 0.08116332765030566 0  0.046875 0.1 0  0.953125 0 0  0.415919189453125 0.03668247284720479 0  0.540919189453125 0.03668247284720479 0  0.0859375 0.01393925506164327 0  0.109375 0.1 0  0.1338555271916189 0.05216484236021472 0  0.953125 0.1 0  0.140625 0 0  0.640625 0 0  0.546875 0.1 0  0.421875 0.1 0  0.203125 0 0  0.703125 0 0  0.046875 0 0  0.234375 0.1 0  0.734375 0.1 0  0.078125 0.1 0  0.921875 0 0  0.921875 0.1 0  0.828125 0.1 0  0.328125 0.1 0  0.453125 0.1 0  0.578125 0.1 0  0.640625 0.1 0  0.140625 0.1 0  0.984375 0.1 0  0.765625 0.1 0  0.265625 0.1 0  0.109375 0 0  0.203125 0.1 0  0.703125 0.1 0  0.234375 0 0  0.734375 0 0  0.609375 0.1 0  0.484375 0.1 0  0.359375 0.1 0  0.859375 0.1 0  0.03162846341645094 0.04971906156616034 0  0.9677597279973049 0.05078312969016881 0  0.8125319459969864 0.08431483734279674 0  0.3125319459969864 0.08431483734279674 0  0.01533347852251798 0.02378565849770013
[...]
<PointData  Vectors="damage"> 
<DataArray  type="Float64"  Name="damage"  NumberOfComponents="3" format="ascii">0.0000000000000000e+00 0.0000000000000000e+00 0.0000000000000000e+00  0.0000000000000000e+00 0.0000000000000000e+00 0.0000000000000000e+00  2.5497454898531963e-01 0.0000000000000000e+00 0.0000000000000000e+00  2.5497454898531963e-01 0.0000000000000000e+00 0.0000000000000000e+00  1.2748151827556248e-01 3.9178020755203866e-03 0.0000000000000000e+00  1.2749189680718639e-01 -3.7535627769339015e-03 0.0000000000000000e+00  6.3564652300804131e-02 3.9204473625326494e-03 0.0000000000000000e+00  6.3552668266176116e-02 -3.7507171515081005e-03 0.0000000000000000e+00  1.9142273399325255e-01 -3.7911877099182137e-03 0.0000000000000000e+00  1.9140677959038474e-01 3.8799867845610977e-03 0.0000000000000000e+00  9.5523344022317283e-02 -3.7451975089739416e-03 0.0000000000000000e+00  9.5522054883040011e-02 3.9261708743238326e-03 0.0000000000000000e+00  3.1609711311913036e-02 3.9135325400806121e-03 0.0000000000000000e+00  3.1580701342458960e-02 -3.7934137253213757e-03 0.0000000000000000e+00  1.5944308780594785e-01 3.9006928914359210e-03 0.0000000000000000e+00  1.5945834659140820e-01 -3.7706742506538079e-03 0.0000000000000000e+00  2.2338474006715614e-01 -3.8284668659170390e-03 0.0000000000000000e+00  2.2337132998713677e-01 3.8795946516782566e-03 0.0000000000000000e+00  1.7544078116618825e-01 -3.7808629095122388e-03 0.0000000000000000e+00  1.7542464387479809e-01 3.8904897175768868e-03 0.0000000000000000e+00  1.4346203902247631e-01 3.9100113604518712e-03 0.0000000000000000e+00  1.4347538256701048e-01 -3.7613529407526988e-03 0.0000000000000000e+00  1.5801883296356581e-02 -3.7887056120853909e-03 0.0000000000000000e+00  1.5831468476166528e-02 3.8728748144244893e-03 0.0000000000000000e+00  4.7565356559037625e-02 -3.7610710936333549e-03 0.0000000000000000e+00  4.7585581730575609e-02 3.9112893612266667e-03 0.0000000000000000e+00  7.9543112907990432e-02 3.9254278224780115e-03 0.0000000000000000e+00  7.9538276574730851e-02 -3.7459255053667023e-03 0.0000000000000000e+00  1.1150787460751954e-01 -3.7479559882609365e-03 0.0000000000000000e+00  1.1150152334563201e-01 3.9234094910791063e-03 0.0000000000000000e+00  2.0739064915984742e-01 3.8705406476843038e-03 0.0000000000000000e+00  2.0740534856207490e-01 -3.8016871402207853e-03 0.0000000000000000e+00  2.3916081309220596e-01 -3.8192664639906809e-03 0.0000000000000000e+00  2.3914467679208670e-01 3.8469253442935340e-03 0.0000000000000000e+00  2.1538745912241017e-01 2.9642683834486512e-05 0.0000000000000000e+00  1.9940541119759478e-01 3.9240072885946428e-05 0.0000000000000000e+00  8.7531697012635939e-02 9.0971366900505739e-05 0.0000000000000000e+00  7.1549700076587425e-02 8.8323856888229888e-05 0.0000000000000000e+00  3.9585727127971336e-02 6.9152646367216455e-05 0.0000000000000000e+00  5.5567981570756132e-02 8.1153000744709552e-05 0.0000000000000000e+00  0.0000000000000000e+00 0.0000000000000000e+00 0.0000000000000000e+00  2.3553001116106462e-02 5.2227074086628406e-05 0.0000000000000000e+00  1.0351371997922862e-01 8.9804718790393684e-05 0.0000000000000000e+00  1.1949570518356553e-01 8.5481643414245836e-05 0.0000000000000000e+00  1.3547772061422217e-01 7.8633479791870395e-05 0.0000000000000000e+00  1.5145971294167029e-01 6.9935910969907541e-05 0.0000000000000000e+00  1.6744171966232624e-01 6.0033072446525361e-05 0.0000000000000000e+00  1.8342371713507222e-01 4.9581211053190731e-05 0.0000000000000000e+00  2.3142232607280269e-01 2.1003014425435966e-05 0.0000000000000000e+00  2.5497454898531963e-01 0.0000000000000000e+00 0.0000000000000000e+00  1.1409223331381415e-02 4.2518406698275165e-04 0.0000000000000000e+00  2.4358118346924734e-01 -3.7495021426178738e-04 0.0000000000000000e+00  2.4671542550378514e-01 3.3293173671058150e-03 0.0000000000000000e+00  8.2109376677865584e-03 -3.2501878990502157e-03 0.0000000000000000e+00  8.2929749783486779e-03 3.3114981470426848e-03 0.0000000000000000e+00  2.4673248771124642e-01 -3.2522009590465147e-03 0.0000000000000000e+00  2.5497454898531963e-01 0.0000000000000000e+00 0.0000000000000000e+00  2.2338603953757041e-01 -1.1541605608626994e-03 0.0000000000000000e+00  2.2250149231116134e-01 1.3700451889440781e-03 0.0000000000000000e+00  2.1538371106640072e-01 3.8699972232225507e-03 0.0000000000000000e+00  2.3133467749010089e-01 -3.8574341051091864e-03 0.0000000000000000e+00  1.5945300329521983e-01 -1.1036002259505334e-03 0.0000000000000000e+00  1.5856910517947834e-01 1.3991251097586498e-03 0.0000000000000000e+00  1.5145250492144191e-01 3.9055005096988058e-03 0.0000000000000000e+00  1.7543030003601412e-01 1.2235140632034193e-03 0.0000000000000000e+00  1.7455647255688861e-01 -1.2780894346859193e-03 0.0000000000000000e+00  1.6744963089926307e-01 -3.7757003392939132e-03 0.0000000000000000e+00  1.8341562190701102e-01 3.8852413785806081e-03 0.0000000000000000e+00  1.4347071002245007e-01 -1.0942207672862362e-03 0.0000000000000000e+00  1.4258744392783296e-01 1.4084300442698270e-03 0.0000000000000000e+00  1.3547172570726759e-01 3.9141379343073648e-03 0.0000000000000000e+00  1.6743379799744557e-01 3.8956608658365244e-03 0.0000000000000000e+00  1.5146693130729166e-01 -3.7658574803491151e-03 0.0000000000000000e+00  1.2748825046938511e-01 -1.0863761075068147e-03 0.0000000000000000e+00  1.2660597294146894e-01 1.4161723044548167e-03 0.0000000000000000e+00  1.1949146675118356e-01 3.9209039327276780e-03 0.0000000000000000e+00  1.3548369431288604e-01 -3.7572206583976592e-03 0.0000000000000000e+00  1.1150563953406556e-01 -1.0807082357808819e-03 0.0000000000000000e+00  1.1062467079998879e-01 1.4216920511510077e-03 0.0000000000000000e+00  1.0351174465602032e-01 3.9251837613537418e-03 0.0000000000000000e+00  1.1949995712259365e-01 -3.7504328449186526e-03 0.0000000000000000e+00  9.5522856019896116e-02 -1.0778960935886579e-03 0.0000000000000000e+00  9.4643567882100696e-02 1.4243330453081854e-03 0.0000000000000000e+00  8.7532537526773854e-02 3.9262524259204663e-03 0.0000000000000000e+00  1.0351565934750710e-01 -3.7461717831099458e-03 0.0000000000000000e+00  2.3661837556818836e-02 3.9270538930999219e-03 0.0000000000000000e+00  2.3629806007527843e-02 -3.8249297972799173e-03 0.0000000000000000e+00  3.1584834154962410e-02 -1.1187112189027487e-03 0.0000000000000000e+00  3.0716034700860061e-02 1.4066936295730047e-03 0.0000000000000000e+00  4.7580376194328047e-02 1.2445272214055211e-03 0.0000000000000000e+00  4.6694568531554924e-02 -1.2589283843432370e-03 0.0000000000000000e+00  3.9570624194281874e-02 -3.7716304130613137e-03 0.0000000000000000e+00  5.5575387181566765e-02 3.9162091285367979e-03 0.0000000000000000e+00  3.9595213439456774e-02 3.9081769402741955e-03 0.0000000000000000e+00  7.1545537287231231e-02 -3.7477650511898697e-03 0.0000000000000000e+00  7.9539923544979282e-02 -1.0785790473160099e-03 0.0000000000000000e+00  7.8662636452826812e-02 1.4234277452608891e-03 0.0000000000000000e+00  7.1553858313791768e-02 3.9235289448687361e-03 0.0000000000000000e+00  6.3560594137555576e-02 1.2539165068640476e-03 0.0000000000000000e+00  6.4435697756766150e-02 -1.2477806291176891e-03 0.0000000000000000e+00  5.5559330663446489e-02 -3.7549039933869608e-03 0.0000000000000000e+00  8.7530882815106945e-02 -3.7450674898383651e-03 0.0000000000000000e+00  1.9941375208586662e-01 -3.7961992402577795e-03 0.0000000000000000e+00  2.0739836103199963e-01 -1.1345465102187598e-03 0.0000000000000000e+00  2.0651471276752575e-01 1.3684832756926727e-03 0.0000000000000000e+00  1.9939828716927727e-01 3.8748368310409687e-03 0.0000000000000000e+00  1.9141228237566496e-01 1.2129797316333777e-03 0.0000000000000000e+00  1.9229641415754095e-01 -1.2896252955486103e-03 0.0000000000000000e+00  1.8343180141678356e-01 -3.7860605393967863e-03 0.0000000000000000e+00  2.3132307242886574e-01 3.9007288763835486e-03 0.0000000000000000e+00  2.1539760116016254e-01 -3.8101679400714197e-03 0.0000000000000000e+00  2.4884429901697150e-01 9.4148723379114104e-04 0.0000000000000000e+00  2.3538708375194928e-01 -1.9488348949586198e-03 0.0000000000000000e+00  0.0000000000000000e+00 0.0000000000000000e+00 0.0000000000000000e+00  6.1551397007246385e-03 -9.5126251019135935e-04 0.0000000000000000e+00  1.8128899887046759e-02 1.7310960487219038e-03 0.0000000000000000e+00  2.3538536862295131e-01 1.9882018252630708e-03 0.0000000000000000e+00  1.9575976744813602e-02 -1.9174181048200541e-03 0.0000000000000000e+00  2.4221361458629451e-01 1.9487503176660317e-03 0.0000000000000000e+00  1.2742506404866785e-02 -1.8920921823411738e-03 0.0000000000000000e+00  2.2884537164535956e-01 1.8625051929973206e-03 0.0000000000000000e+00  5.1791646503978892e-03 5.7860223330626081e-04 0.0000000000000000e+00  2.4981408070860711e-01 -5.6379686481924278e-04 0.0000000000000000e+00  1.8524829546386526e-01 1.9661903635564836e-03 0.0000000000000000e+00  2.1303884939815645e-01 1.9507883717564706e-03 0.0000000000000000e+00  5.7400114822238203e-02 1.9997881159911062e-03 0.0000000000000000e+00  8.5187229686915167e-02 2.0085794558284647e-03 0.0000000000000000e+00  4.0529501621598046e-02 -1.8510094489827586e-03 0.0000000000000000e+00  1.0168592025465434e-01 -1.8277891720737897e-03 0.0000000000000000e+00  1.1714862169910070e-01 2.0040748252353846e-03 0.0000000000000000e+00  1.3365200189892792e-01 -1.8383520578224427e-03 0.0000000000000000e+00  1.4911106712194919e-01 1.9891166219818878e-03 0.0000000000000000e+00  1.6839519511459827e-01 -1.8584325803803264e-03 0.0000000000000000e+00  7.0597903202396492e-02 -1.8299131289480895e-03 0.0000000000000000e+00  1.9845995824055268e-01 -1.8778086463887523e-03 0.0000000000000000e+00  0.0000000000000000e+00 0.0000000000000000e+00 0.0000000000000000e+00  2.5497454898531963e-01 0.0000000000000000e+00 0.0000000000000000e+00  2.1721914863043049e-01 -1.8945650077737651e-03 0.0000000000000000e+00  1.9757324999205772e-01 1.9580860441495676e-03 0.0000000000000000e+00  8.9359982569847368e-02 -1.8269079224321654e-03 0.0000000000000000e+00  6.9723468625332366e-02 2.0054310570357392e-03 0.0000000000000000e+00  1.0116779541745805e-01 2.0079577605280345e-03 0.0000000000000000e+00  1.2132646410882281e-01 -1.8330823648391391e-03 0.0000000000000000e+00  1.3312971488794484e-01 1.9975672193805962e-03 0.0000000000000000e+00  1.5329189531495893e-01 -1.8490133625444233e-03 0.0000000000000000e+00  1.6926635038967602e-01 1.9766811525067300e-03 0.0000000000000000e+00  4.1420582704562905e-02 1.9905779404060828e-03 0.0000000000000000e+00  5.3218290641585085e-02 -1.8381270505017189e-03 0.0000000000000000e+00  1.8108256652779314e-01 -1.8667011227868843e-03 0.0000000000000000e+00  2.4562955389772823e-02 2.0116443598480406e-03 0.0000000000000000e+00  2.5948464734668501e-02 -2.0413683889375987e-03 0.0000000000000000e+00  2.2901714430372608e-01 -2.0734349560728215e-03 0.0000000000000000e+00  1.8710628499245635e-01 -2.2957425788842365e-03 0.0000000000000000e+00  5.9240983777744304e-02 -2.2597546757043910e-03 0.0000000000000000e+00  1.2348648579060297e-02 2.2195163994439076e-03 0.0000000000000000e+00  2.3765103763576481e-01 2.0206811777997673e-04 0.0000000000000000e+00  2.4137589159688194e-01 -2.0919802687243290e-03 0.0000000000000000e+00  1.7353756356872658e-02 -1.4726853826610973e-04 0.0000000000000000e+00  1.7942298393871442e-01 2.5543778565444140e-03 0.0000000000000000e+00  5.1578000481129010e-02 2.5804551490292895e-03 0.0000000000000000e+00  2.1139705103188006e-01 -2.4716096155973422e-03 0.0000000000000000e+00  8.3535100219416070e-02 -2.4116610203854670e-03 0.0000000000000000e+00  1.0737932725198809e-01 -2.3778218730702038e-03 0.0000000000000000e+00  1.1550259205273163e-01 -2.4154663573383488e-03 0.0000000000000000e+00  1.3934576405873275e-01 -2.3901197557969186e-03 0.0000000000000000e+00  1.4746870462684936e-01 -2.4299895213152570e-03 0.0000000000000000e+00  1.6341879661431133e-01 2.5076548886797446e-03 0.0000000000000000e+00  3.5576945115605899e-02 2.5188287042654908e-03 0.0000000000000000e+00  2.0340942033919282e-01 -3.7987777211591872e-03 0.0000000000000000e+00  7.5541911726579591e-02 -3.7467240991400394e-03 0.0000000000000000e+00  1.6303322971864409e-01 -2.4393646912951542e-03 0.0000000000000000e+00  3.5163901970635729e-02 -2.4476735320515986e-03 0.0000000000000000e+00  2.0339432511646358e-01 3.8724609561517961e-03 0.0000000000000000e+00  7.5548471437485290e-02 3.9246299799761009e-03 0.0000000000000000e+00  9.1527278464601000e-02 3.9263400802716534e-03 0.0000000000000000e+00  1.0750661125842881e-01 3.9243931411624914e-03 0.0000000000000000e+00  1.2348647451670758e-01 3.9194344495947922e-03 0.0000000000000000e+00  1.3946686158345475e-01 3.9121282575841293e-03 0.0000000000000000e+00  1.5544777573123758e-01 3.9031285366092033e-03 0.0000000000000000e+00  2.1937933203398707e-01 3.8729220790086100e-03 0.0000000000000000e+00  2.5044411489971113e-01 2.3120066035355719e-03 0.0000000000000000e+00  4.5144512431449747e-03 2.4321806634059035e-03 0.0000000000000000e+00  2.5040548734482093e-01 -1.4563453668093814e-03 0.0000000000000000e+00  4.3810195429744500e-03 -2.2412733528808927e-03 0.0000000000000000e+00  3.5589384450693186e-02 9.9799037514369370e-04 0.0000000000000000e+00  2.1081395631284969e-01 6.1741518680801725e-04 0.0000000000000000e+00  8.2960115603069762e-02 6.7542941142670863e-04 0.0000000000000000e+00  1.1492329255638542e-01 6.7181633848204067e-04 0.0000000000000000e+00  1.4688680687228245e-01 6.5739066787622708e-04 0.0000000000000000e+00  1.8866681273622243e-01 -1.3703952278624039e-04 0.0000000000000000e+00  6.0810241513233887e-02 -9.9146480535536807e-05 0.0000000000000000e+00  5.0325078360088163e-02 -1.0548052000374178e-04 0.0000000000000000e+00  9.8941670326126052e-02 6.7530246251939184e-04 0.0000000000000000e+00  1.3090501921952072e-01 6.6562521135736855e-04 0.0000000000000000e+00  1.7818135816404343e-01 -1.3016275345346419e-04 0.0000000000000000e+00  1.6344188539667645e-01 9.9095885397550046e-04 0.0000000000000000e+00  2.2661017151200732e-01 4.9257160635062989e-04 0.0000000000000000e+00  7.3602634668101831e-03 1.8606406747053053e-03 0.0000000000000000e+00  7.5734471046152496e-02 -2.1693250977574169e-03 0.0000000000000000e+00  2.0359687833532270e-01 -2.2218167285442182e-03 0.0000000000000000e+00  1.5428769237870993e-01 2.3477429663833773e-03 0.0000000000000000e+00  2.1821598145318849e-01 2.3147586282951781e-03 0.0000000000000000e+00  1.0634463071348579e-01 2.3686842164446489e-03 0.0000000000000000e+00  1.3830635906766997e-01 2.3566832877856109e-03 0.0000000000000000e+00  1.2232533979714254e-01 2.3638801755094209e-03 0.0000000000000000e+00  9.0364235331721471e-02 2.3704268008083338e-03 0.0000000000000000e+00  1.9428919943231612e-01 -2.6187353262645740e-03 0.0000000000000000e+00  6.6423922542046959e-02 -2.5750417564922544e-03 0.0000000000000000e+00  1.7144522165771664e-01 -3.7782714504010309e-03 0.0000000000000000e+00  4.3568018179838887e-02 -3.7653466634557367e-03 0.0000000000000000e+00  2.8750607894403975e-02 2.7457097026495482e-03 0.0000000000000000e+00  3.6423835570810664e-02 -1.0387614601665780e-03 0.0000000000000000e+00  1.6428670484048782e-01 -1.0381614061782927e-03 0.0000000000000000e+00  1.8123917881916268e-01 1.2756195245927121e-03 0.0000000000000000e+00  5.3388749030790356e-02 1.3042461340036311e-03 0.0000000000000000e+00  8.4340656117949650e-02 -9.8893973954161771e-04 0.0000000000000000e+00  2.1219845237139678e-01 -1.0492908295940727e-03 0.0000000000000000e+00  1.1630615080341228e-01 -9.9312108496229850e-04 0.0000000000000000e+00  1.4827105142982205e-01 -1.0078857902546614e-03 0.0000000000000000e+00  2.4572932060357092e-01 -2.2160720457471998e-03 0.0000000000000000e+00  2.0254295591626065e-01 2.3513736641387396e-03 0.0000000000000000e+00  7.4693567058687058e-02 2.4032082735128213e-03 0.0000000000000000e+00  1.9723202505022852e-02 3.9200338159618205e-03 0.0000000000000000e+00  1.0557957937738432e-01 -1.1252002964481946e-03 0.0000000000000000e+00  1.3754481862647536e-01 -1.1370015243864307e-03 0.0000000000000000e+00  1.7241936933815855e-01 -2.4626320331458990e-03 0.0000000000000000e+00  4.4550657837832359e-02 -2.4474023540794611e-03 0.0000000000000000e+00  4.9093291960032912e-02 -2.4136843524100527e-03 0.0000000000000000e+00  1.7696106238042780e-01 -2.4363694997167487e-03 0.0000000000000000e+00  2.0289509406337503e-01 -8.5949491126820958e-04 0.0000000000000000e+00  7.5036906589693836e-02 -8.0740569116885715e-04 0.0000000000000000e+00  1.0845875679389221e-01 8.8771371873266184e-05 0.0000000000000000e+00  1.4042276529926015e-01 7.6108072839294408e-05 0.0000000000000000e+00  4.7108476995014206e-02 2.5776738130914743e-03 0.0000000000000000e+00  1.7495272859113872e-01 2.5573146860089742e-03 0.0000000000000000e+00  1.5524852065158562e-01 -6.4470097238599703e-04 0.0000000000000000e+00  1.2328400946719088e-01 -6.2831230498696603e-04 0.0000000000000000e+00  9.1319105496108138e-02 -6.2135931910179765e-04 0.0000000000000000e+00  2.1917757893241624e-01 -6.8824127129140549e-04 0.0000000000000000e+00  6.1776972069117024e-02 2.5863588530890837e-03 0.0000000000000000e+00  1.8962359784709493e-01 2.5476340089135617e-03 0.0000000000000000e+00  2.8530130863525724e-02 5.7493369925075767e-05 0.0000000000000000e+00  4.3375988188872255e-02 7.8528720143140949e-04 0.0000000000000000e+00  1.7122770904383797e-01 7.6995122832397198e-04 0.0000000000000000e+00  6.7763218342712303e-02 7.9938514459111957e-04 0.0000000000000000e+00  1.9561669170090748e-01 7.5395561830373531e-04 0.0000000000000000e+00  3.0330406905499603e-02 -2.4650331828199035e-03 0.0000000000000000e+00  1.5766964672335862e-01 -2.4360277172129777e-03 0.0000000000000000e+00  1.2570396532539505e-01 -2.4191933465440834e-03 0.0000000000000000e+00  9.3736914246376341e-02 -2.4113995334114255e-03 0.0000000000000000e+00  2.2159517576135229e-01 -2.4894536073784583e-03 0.0000000000000000e+00  1.3148780736484519e-01 -3.7553214765884625e-03 0.0000000000000000e+00  9.9519510870217820e-02 -3.7455690577492583e-03 0.0000000000000000e+00  6.7559259041570424e-02 3.9221468375448786e-03 0.0000000000000000e+00  1.9540246929684096e-01 3.8773782640596772e-03 0.0000000000000000e+00  1.3167248561890471e-01 -6.4585108405878534e-04 0.0000000000000000e+00  9.9707668631851529e-02 -6.3591998829368212e-04 0.0000000000000000e+00  2.2790471977473989e-01 -7.8292704792483217e-04 0.0000000000000000e+00  4.3590325567565869e-02 3.9092189464677478e-03 0.0000000000000000e+00  1.7142920808024603e-01 3.8930904141163247e-03 0.0000000000000000e+00  2.2735696592226071e-01 3.8889246922980763e-03 0.0000000000000000e+00  2.2487048683309185e-01 2.5710161023835797e-03 0.0000000000000000e+00  5.7788836980313112e-02 -1.0346885287669796e-03 0.0000000000000000e+00  1.8564921867250878e-01 -1.0690435862115409e-03 0.0000000000000000e+00  2.3884283042162577e-01 -1.0850417388994984e-03 0.0000000000000000e+00  1.1549648734268886e-01 3.9222229388153453e-03 0.0000000000000000e+00  1.1299245078164052e-01 2.6110564915805554e-03 0.0000000000000000e+00  8.3537821246478586e-02 3.9259390335947327e-03 0.0000000000000000e+00  8.1032062740046915e-02 2.6137960606885582e-03 0.0000000000000000e+00  1.4745725936625587e-01 3.9077856371203664e-03 0.0000000000000000e+00  1.4495422312811312e-01 2.5971846293048589e-03 0.0000000000000000e+00  2.1138713754529770e-01 3.8695393838103689e-03 0.0000000000000000e+00  2.0888213721194304e-01 2.5576662340611764e-03 0.0000000000000000e+00  1.3147661085789239e-01 3.9160134905660820e-03 0.0000000000000000e+00  1.2897316377464502e-01 2.6051821740468370e-03 0.0000000000000000e+00  9.9516891486994885e-02 3.9257503439748785e-03 0.0000000000000000e+00  9.7012082244677028e-02 2.6141476692631959e-03 0.0000000000000000e+00  3.7109275067167646e-03 -1.1973412924287364e-03 0.0000000000000000e+00  2.5130092644257962e-01 1.1219172422645908e-03 0.0000000000000000e+00  9.0452971859624240e-02 1.0624592660073457e-03 0.0000000000000000e+00  1.2241574360992273e-01 1.0558451850750025e-03 0.0000000000000000e+00  2.1830803572291138e-01 1.0037051539766566e-03 0.0000000000000000e+00  1.9620693323632429e-01 -7