<?xml version="1.0"?>
<VTKFile type="UnstructuredGrid"  version="0.1"  >
<UnstructuredGrid>
<Piece  NumberOfPoints="820" NumberOfCells="1464">
<Points>
<DataArray  type="Float64"  NumberOfComponents="3"  format="ascii">0 0.1 0  0 0 0  1 0 0  1 0.1 0  0.5 0 0  0.5 0.1 0  0.25 0 0  0.25 0.1 0  0.75 0.1 0  0.75 0 0  0.375 0.1 0  0.375 0 0  0.125 0 0  0.125 0.1 0  0.625 0 0  0.625 0.1 0  0.875 0.1 0  0.875 0 0  0.6875 0.1 0  0.6875 0 0  0.5625 0 0  0.5625 0.1 0  0.0625 0.1 0  0.0625 0 0  0.1875 0.1 0  0.1875 0 0  0.3125 0 0  0.3125 0.1 0  0.4375 0.1 0  0.4375 0 0  0.8125 0 0  0.8125 0.1 0  0.9375 0.1 0  0.9375 0 0  0.84375 0.05000000000000001 0  0.78125 0.05 0  0.34375 0.05000000000000001 0  0.28125 0.05 0  0.15625 0.05 0  0.21875 0.05000000000000001 0  0 0.05 0  0.09375 0.05000000000000001 0  0.40625 0.05 0  0.46875 0.05000000000000001 0  0.53125 0.05 0  0.59375 0.05000000000000001 0  0.65625 0.05 0  0.71875 0.05000000000000001 0  0.90625 0.05 0  1 0.05 0  0.046875 0.04453125000000001 0  0.953125 0.05546875 0  0.96875 0 0  0.03125 0.1 0  0.03125 0 0  0.96875 0.1 0  1 0.07500000000000001 0  0.875 0.06523437500000001 0  0.8715625 0.03261718750000001 0  0.84375 0 0  0.90625 0.1 0  0.625 0.06523437500000001 0  0.6215625 0.03261718750000001 0  0.59375 0 0  0.6875 0.034765625 0  0.6840625 0.0673828125 0  0.65625 0.1 0  0.71875 0 0  0.5625 0.06523437500000001 0  0.5590625 0.03261718750000001 0  0.53125 0 0  0.65625 0 0  0.59375 0.1 0  0.5 0.06523437500000001 0  0.4965625 0.03261718750000001 0  0.46875 0 0  0.53125 0.1 0  0.4375 0.06523437500000001 0  0.4340625 0.03261718750000001 0  0.40625 0 0  0.46875 0.1 0  0.375 0.06523437500000001 0  0.3715625 0.03261718750000001 0  0.34375 0 0  0.40625 0.1 0  0.09375 0 0  0.09375 0.1 0  0.125 0.06523437500000001 0  0.1215625 0.03261718750000001 0  0.1875 0.034765625 0  0.1840625 0.0673828125 0  0.15625 0.1 0  0.21875 0 0  0.15625 0 0  0.28125 0.1 0  0.3125 0.06523437500000001 0  0.3090625 0.03261718750000001 0  0.28125 0 0  0.25 0.034765625 0  0.2534375 0.0673828125 0  0.21875 0.1 0  0.34375 0.1 0  0.78125 0.1 0  0.8125 0.06523437500000001 0  0.8090625 0.03261718750000001 0  0.78125 0 0  0.75 0.034765625 0  0.7534375 0.0673828125 0  0.71875 0.1 0  0.90625 0 0  0.84375 0.1 0  0.9740776699029127 0.03143583131067961 0  0.921875 0.075 0  0 0.025 0  0.02592233009708738 0.06856416868932039 0  0.0725 0.028515625 0  0.921875 0.025 0  0.078125 0.07500000000000001 0  0.9484670937186905 0.0242372460741816 0  0.05153290628130947 0.07576275392581842 0  0.8963594872172794 0.02643561701079966 0  0.02229817708333334 0.0375 0  0.9777018229166666 0.06250000000000001 0  0.72590087890625 0.025 0  0.8345789124085022 0.025 0  0.22590087890625 0.025 0  0.3345789124085023 0.025 0  0.15996337890625 0.075 0  0.39909912109375 0.075 0  0.4595789124085023 0.025 0  0.52409912109375 0.075 0  0.5845789124085022 0.025 0  0.65996337890625 0.075 0  0.27753662109375 0.075 0  0.77753662109375 0.075 0  0 0.07500000000000001 0  1 0.025 0  0.85090087890625 0.07500000000000001 0  0.77409912109375 0.025 0  0.35090087890625 0.07500000000000001 0  0.27409912109375 0.025 0  0.3970789124085022 0.025 0  0.47590087890625 0.07500000000000001 0  0.5220789124085022 0.025 0  0.60090087890625 0.07500000000000001 0  0.66340087890625 0.025 0  0.16340087890625 0.025 0  0.2095789124085023 0.07500000000000001 0  0.7095789124085022 0.07500000000000001 0  0.0974991439537346 0.02496950333675565 0  0.1029665898617512 0.07685681883640554 0  0.8970334101382489 0.07685681883640554 0  0.7331321502083639 0.0805418246751822 0  0.2331321502083639 0.08054182467518221 0  0.04967773437499999 0.02050781250000001 0  0.9302821601941748 0.04763728762135922 0  0.9453125 0.07773437499999999 0  0.06981448887637284 0.05242311804773303 0  0.703125 0.0173828125 0  0.203125 0.0173828125 0  0.828125 0.08261718750000001 0  0.328125 0.08261718750000001 0  0.4213608787615672 0.08215505604972331 0  0.453125 0.08261718750000001 0  0.5463608787615671 0.08215505604972331 0  0.578125 0.08261718750000001 0  0.6405370048634059 0.0181271643224308 0  0.1405370048634059 0.0181271643224308 0  0.796875 0.1 0  0.296875 0.1 0  0.6389903131525874 0.08261718750000001 0  0.1389903131525873 0.08261718750000001 0  0.796875 0 0  0.296875 0 0  0.359375 0 0  0.421875 0 0  0.484375 0 0  0.546875 0 0  0.609375 0 0  0.859375 0 0  0.984375 0 0  0.015625 0 0  0.9808265015870887 0.08306437698386088 0  0.015625 0.1 0  0.140615310157384 0.03789815460447876 0  0.8258710430305984 0.04237660226422156 0  0.3258710430305984 0.04237660226422154 0  0.4508710430305984 0.04237660226422154 0  0.5758710430305984 0.04237660226422156 0  0.73925254007477 0.05238802290978471 0  0.23925254007477 0.05238802290978471 0  0.19824745992523 0.05238802290978471 0  0.3883710430305984 0.04237660226422155 0  0.5133710430305984 0.04237660226422155 0  0.69824745992523 0.05238802290978471 0  0.6406153101573839 0.03789815460447876 0  0.8875652355519991 0.04398459561477483 0  0.03011990291140283 0.01954869700666445 0  0.2976228417042103 0.07944206017604956 0  0.7976228417042103 0.07944206017604956 0  0.6048261925064409 0.0202852140350185 0  0.8548261925064409 0.0202852140350185 0  0.4173261925064409 0.02028521403501849 0  0.5423261925064409 0.02028521403501849 0  0.479826192506441 0.02028521403501848 0  0.354826192506441 0.02028521403501848 0  0.7612196085333947 0.08469269433495656 0  0.2612196085333947 0.08469269433495656 0  0.671875 0.1 0  0.171875 0.1 0  0.1138156987561534 0.01531102667280419 0  0.1439032206506398 0.06434174268079966 0  0.6439032206506399 0.06434174268079966 0  0.7102169938849521 0.03403655887996306 0  0.2102169938849521 0.03403655887996306 0  0.331272668838501 0.06407394409179688 0  0.8312726688385009 0.06407394409179688 0  0.456272668838501 0.06407394409179688 0  0.5812726688385009 0.06407394409179688 0  0.9626931005513372 0.08290734481438196 0  0.7935362330470901 0.01983307912641665 0  0.2935362330470901 0.01983307912641665 0  0.078125 0 0  0.4143262322415116 0.06583278773374907 0  0.5393262322415115 0.06583278773374907 0  0.6756954193768612 0.08284197013692297 0  0.1756954193768612 0.08284197013692297 0  0.1934564775596677 0.08246105735569852 0  0.6934564775596677 0.0824610573556985 0  0.7948904737904949 0.06168801049385652 0  0.2948904737904949 0.06168801049385652 0  0.42558837890625 0.05 0  0.55058837890625 0.05 0  0.185643310546875 0.0173828125 0  0.685643310546875 0.0173828125 0  0.6085613945093048 0.05928612183988766 0  0.4835613945093048 0.05928612183988766 0  0.3585613945093048 0.05928612183988766 0  0.8585613945093048 0.05928612183988766 0  0.2430157823768409 0.0173828125 0  0.743015782376841 0.0173828125 0  0.11308837890625 0.05 0  0.1710613945093048 0.04071387816011236 0  0.6710613945093048 0.04071387816011236 0  0.2664386054906952 0.04071387816011236 0  0.7664386054906952 0.04071387816011236 0  0.1200872144236349 0.08261718750000001 0  0.618015782376841 0.08261718750000001 0  0.4930157823768409 0.08261718750000001 0  0.3680157823768409 0.08261718750000001 0  0.868015782376841 0.08261718750000001 0  0.515625 0.1 0  0.390625 0.1 0  0.265625 0 0  0.765625 0 0  0.516365031953596 0.05946768293606444 0  0.3913650319535959 0.05946768293606444 0  0.8926135952226929 0.06033018746614476 0  0.171875 0 0  0.671875 0 0  0.890625 0 0  0.8808652108632187 0.0171078614816925 0  0.2274441083295474 0.06456313374723947 0  0.7274441083295474 0.06456313374723946 0  0.9350285939903868 0.06406852472525566 0  0.453125 0 0  0.4433265752246126 0.01710378970181546 0  0.328125 0 0  0.3183265752246126 0.01710378970181546 0  0.578125 0 0  0.5683265752246126 0.01710378970181545 0  0.828125 0 0  0.8183265752246126 0.01710378970181545 0  0.515625 0 0  0.5058265752246126 0.01710378970181545 0  0.390625 0 0  0.3808265752246126 0.01710378970181545 0  0.01564771141956889 0.08260299286276945 0  0.9843522885804311 0.01739700713723054 0  0.3551736619148977 0.03733645281383641 0  0.4801736619148977 0.03733645281383641 0  0.8551736619148977 0.03733645281383642 0  0.7687346279121444 0.06091681090943113 0  0.2687346279121444 0.06091681090943113 0  0.6687653720878556 0.06091681090943113 0  0.1687653720878556 0.06091681090943113 0  0.6051736619148977 0.03733645281383642 0  0.2924478939734164 0.03697522410746614 0  0.7924478939734163 0.03697522410746614 0  0.8719142286486647 0.04906985056606887 0  0.6274213820068905 0.04848945596065109 0  0.4983341418505795 0.04892020701904073 0  0.3733341418505795 0.04892020701904073 0  0.3108341418505795 0.04892020701904073 0  0.8108341418505794 0.04892020701904073 0  0.6242024164762008 0.01640567476785111 0  0.3848561971730207 0.08410836408489761 0  0.5098561971730207 0.08410836408489761 0  0.2598561971730207 0.01589163591510238 0  0.7598561971730207 0.01589163591510238 0  0.890625 0.1 0  0.9582054159658413 0.03874795528975266 0  0.03565822065430611 0.08308352918541601 0  0.9643417793456939 0.016916470814584 0  0 0.0625 0  0.0168287001921521 0.05388159890776699 0  0.0417945840341587 0.06125204471024735 0  0.9831712998078479 0.04611840109223304 0  0.5622607296296599 0.08116332765030569 0  0.4372607296296599 0.08116332765030566 0  0.046875 0.1 0  0.953125 0 0  0.415919189453125 0.03668247284720479 0  0.540919189453125 0.03668247284720479 0  0.0859375 0.01393925506164327 0  0.109375 0.1 0  0.1338555271916189 0.05216484236021472 0  0.953125 0.1 0  0.140625 0 0  0.640625 0 0  0.546875 0.1 0  0.421875 0.1 0  0.203125 0 0  0.703125 0 0  0.046875 0 0  0.234375 0.1 0  0.734375 0.1 0  0.078125 0.1 0  0.921875 0 0  0.921875 0.1 0  0.828125 0.1 0  0.328125 0.1 0  0.453125 0.1 0  0.578125 0.1 0  0.640625 0.1 0  0.140625 0.1 0  0.984375 0.1 0  0.765625 0.1 0  0.265625 0.1 0  0.109375 0 0  0.203125 0.1 0  0.703125 0.1 0  0.234375 0 0  0.734375 0 0  0.609375 0.1 0  0.484375 0.1 0  0.359375 0.1 0  0.859375 0.1 0  0.03162846341645094 0.04971906156616034 0  0.9677597279973049 0.05078312969016881 0  0.8125319459969864 0.08431483734279674 0  0.3125319459969864 0.08431483734279674 0  0.01533347852251798 0.02378565849770013
[...]
<PointData  Vectors="damage"> 
<DataArray  type="Float64"  Name="damage"  NumberOfComponents="3" format="ascii">0.0000000000000000e+00 0.0000000000000000e+00 0.0000000000000000e+00  0.0000000000000000e+00 0.0000000000000000e+00 0.0000000000000000e+00  1.6998303265687975e-01 0.0000000000000000e+00 0.0000000000000000e+00  1.6998303265687975e-01 0.0000000000000000e+00 0.0000000000000000e+00  8.4987619676497969e-02 2.6122852289377527e-03 0.0000000000000000e+00  8.4994602204128605e-02 -2.5019600511385714e-03 0.0000000000000000e+00  4.2376423819381802e-02 2.6140724310090911e-03 0.0000000000000000e+00  4.2368367895197032e-02 -2.5000392195853511e-03 0.0000000000000000e+00  1.2761519363092677e-01 -2.5272709202332154e-03 0.0000000000000000e+00  1.2760446106000653e-01 2.5868474435670002e-03 0.0000000000000000e+00  6.3682198773923906e-02 -2.4963306710468745e-03 0.0000000000000000e+00  6.3681328750589475e-02 2.6179169781808684e-03 0.0000000000000000e+00  2.1073173130287160e-02 2.6093217906143296e-03 0.0000000000000000e+00  2.1053664722050308e-02 -2.5286438975846794e-03 0.0000000000000000e+00  1.0629532690007308e-01 2.6007756053922767e-03 0.0000000000000000e+00  1.0630559144650012e-01 -2.5134712091002234e-03 0.0000000000000000e+00  1.4892319601923254e-01 -2.5522378143298676e-03 0.0000000000000000e+00  1.4891417971780696e-01 2.5864717294056560e-03 0.0000000000000000e+00  1.1696055464386501e-01 -2.5203250076782460e-03 0.0000000000000000e+00  1.1694969921909103e-01 2.5939121052913124e-03 0.0000000000000000e+00  9.5641295744775173e-02 2.6070441330079248e-03 0.0000000000000000e+00  9.5650272247613632e-02 -2.5072007758574818e-03 0.0000000000000000e+00  1.0534416615809736e-02 -2.5256129313182534e-03 0.0000000000000000e+00  1.0554369001898984e-02 2.5820840120028966e-03 0.0000000000000000e+00  3.1710131933410490e-02 -2.5069965730890368e-03 0.0000000000000000e+00  3.1723729919285716e-02 2.6079127937254404e-03 0.0000000000000000e+00  5.3028714311287375e-02 2.6174192522139903e-03 0.0000000000000000e+00  5.3025465069317684e-02 -2.4968183358513524e-03 0.0000000000000000e+00  7.4338571424839198e-02 -2.4981876356938975e-03 0.0000000000000000e+00  7.4334297200113322e-02 2.6160580654364528e-03 0.0000000000000000e+00  1.3826038184761230e-01 2.5804897791450085e-03 0.0000000000000000e+00  1.3827027074885206e-01 -2.5343307821287229e-03 0.0000000000000000e+00  1.5944057331432895e-01 -2.5461465747855343e-03 0.0000000000000000e+00  1.5942975847246038e-01 2.5646472137291583e-03 0.0000000000000000e+00  1.4359163526004118e-01 1.9861319204168782e-05 0.0000000000000000e+00  1.3293693239462812e-01 2.6317505424637488e-05 0.0000000000000000e+00  5.8354426698675826e-02 6.1120060058788547e-05 0.0000000000000000e+00  4.7699757848591443e-02 5.9341590495243624e-05 0.0000000000000000e+00  2.6390433953320507e-02 4.6451612545743606e-05 0.0000000000000000e+00  3.7045274527535622e-02 5.4521261605042278e-05 0.0000000000000000e+00  0.0000000000000000e+00 0.0000000000000000e+00 0.0000000000000000e+00  1.5701945842008947e-02 3.5064524401460388e-05 0.0000000000000000e+00  6.9009113002579045e-02 6.0333579959916768e-05 0.0000000000000000e+00  7.9663773920568254e-02 5.7424449847714144e-05 0.0000000000000000e+00  9.0318455165993974e-02 5.2817220557783401e-05 0.0000000000000000e+00  1.0097312087396883e-01 4.6966263767490363e-05 0.0000000000000000e+00  1.1162779625230190e-01 4.0304735589583073e-05 0.0000000000000000e+00  1.2228246546335654e-01 3.3273939688762679e-05 0.0000000000000000e+00  1.5428155065915561e-01 1.4051766127621621e-05 0.0000000000000000e+00  1.6998303265687975e-01 0.0000000000000000e+00 0.0000000000000000e+00  7.6061173888214029e-03 2.8359081472436183e-04 0.0000000000000000e+00  1.6238745929488821e-01 -2.4994723247064835e-04 0.0000000000000000e+00  1.6447693472835326e-01 2.2195575045507367e-03 0.0000000000000000e+00  5.4737224440574595e-03 -2.1666526724692958e-03 0.0000000000000000e+00  5.5287015792032457e-03 2.2077459247009531e-03 0.0000000000000000e+00  1.6448835925746916e-01 -2.1681187609591049e-03 0.0000000000000000e+00  1.6998303265687978e-01 0.0000000000000000e+00 0.0000000000000000e+00  1.4892403575942170e-01 -7.6936717401055821e-04 0.0000000000000000e+00  1.4833431273880557e-01 9.1344007590638237e-04 0.0000000000000000e+00  1.4358909472941503e-01 2.5800995496430856e-03 0.0000000000000000e+00  1.5422315189298935e-01 -2.5715724148151092e-03 0.0000000000000000e+00  1.0630199702965989e-01 -7.3542070193725949e-04 0.0000000000000000e+00  1.0571270188976734e-01 9.3306678220958614e-04 0.0000000000000000e+00  1.0096827198769660e-01 2.6040096610529433e-03 0.0000000000000000e+00  1.1695350401117140e-01 8.1592774818608983e-04 0.0000000000000000e+00  1.1637098337173417e-01 -8.5180512196370809e-04 0.0000000000000000e+00  1.1163311810569614e-01 -2.5168521957019555e-03 0.0000000000000000e+00  1.2227701987443912e-01 2.5903817772394660e-03 0.0000000000000000e+00  9.5647128930850797e-02 -7.2911116497195207e-04 0.0000000000000000e+00  9.5058258838368243e-02 9.3932620357214448e-04 0.0000000000000000e+00  9.0314422109827402e-02 2.6098201742832628e-03 0.0000000000000000e+00  1.1162246742902232e-01 2.5973906286901696e-03 0.0000000000000000e+00  1.0097797671824571e-01 -2.5102310018351452e-03 0.0000000000000000e+00  8.4992149012515936e-02 -7.2383379377243462e-04 0.0000000000000000e+00  8.4403943732057757e-02 9.4453471132768677e-04 0.0000000000000000e+00  7.9660922085722244e-02 2.6143721500703648e-03 0.0000000000000000e+00  9.0322473959397298e-02 -2.5044208959472455e-03 0.0000000000000000e+00  7.4337067295660697e-02 -7.2002030230960241e-04 0.0000000000000000e+00  7.3749742167053836e-02 9.4824858985048937e-04 0.0000000000000000e+00  6.9007783080245577e-02 2.6172521978884500e-03 0.0000000000000000e+00  7.9666634838638367e-02 -2.4998542498156028e-03 0.0000000000000000e+00  6.3681869527690046e-02 -7.1812725214744110e-04 0.0000000000000000e+00  6.3095674574666721e-02 9.5002654212019355e-04 0.0000000000000000e+00  5.8354990357313653e-02 2.6179727880175693e-03 0.0000000000000000e+00  6.9010418745012722e-02 -2.4969868205110411e-03 0.0000000000000000e+00  1.5774604237141714e-02 2.6182770133348476e-03 0.0000000000000000e+00  1.5753052103398293e-02 -2.5497080146351385e-03 0.0000000000000000e+00  2.1056477111651824e-02 -7.4550528202185242e-04 0.0000000000000000e+00  2.0477333174334353e-02 9.3809237670265742e-04 0.0000000000000000e+00  3.1720219902406664e-02 8.3007337355874402e-04 0.0000000000000000e+00  3.1129642814137888e-02 -8.3890174277526650e-04 0.0000000000000000e+00  2.6380295345968557e-02 -2.5140747223633296e-03 0.0000000000000000e+00  3.7050256533190447e-02 2.6112236447214656e-03 0.0000000000000000e+00  2.6396828717771124e-02 2.6057988971168477e-03 0.0000000000000000e+00  4.7696959984615254e-02 -2.4980545689264099e-03 0.0000000000000000e+00  5.3026571598375177e-02 -7.1858461396176053e-04 0.0000000000000000e+00  5.2441722309209619e-02 9.4941969863680277e-04 0.0000000000000000e+00  4.7702552610103768e-02 2.6161433977597900e-03 0.0000000000000000e+00  4.2373695404705071e-02 8.3638701314346761e-04 0.0000000000000000e+00  4.2957076428559657e-02 -8.3140970560862380e-04 0.0000000000000000e+00  3.7039462200567488e-02 -2.5028540323724156e-03 0.0000000000000000e+00  5.8353880695153730e-02 -2.4962422710910030e-03 0.0000000000000000e+00  1.3294253978910761e-01 -2.5306426185936156e-03 0.0000000000000000e+00  1.3826558113305659e-01 -7.5623685686272127e-04 0.0000000000000000e+00  1.3767645325381575e-01 9.1245356721793497e-04 0.0000000000000000e+00  1.3293213624722072e-01 2.5833834602005993e-03 0.0000000000000000e+00  1.2760816327157543e-01 8.0884180903701287e-04 0.0000000000000000e+00  1.2819761562092949e-01 -8.5956562567923104e-04 0.0000000000000000e+00  1.2228790374660721e-01 -2.5238215228164155e-03 0.0000000000000000e+00  1.5421534784119353e-01 2.6005374562357874e-03 0.0000000000000000e+00  1.4359843829868485e-01 -2.5400127008191856e-03 0.0000000000000000e+00  1.6589619566671768e-01 6.2766595622766380e-04 0.0000000000000000e+00  1.5692473883538771e-01 -1.2991836513447797e-03 0.0000000000000000e+00  0.0000000000000000e+00 0.0000000000000000e+00 0.0000000000000000e+00  4.1033644759692041e-03 -6.3407922129455501e-04 0.0000000000000000e+00  1.2085924524586017e-02 1.1542603125322751e-03 0.0000000000000000e+00  1.5692356483811037e-01 1.3255070050308783e-03 0.0000000000000000e+00  1.3050542057357690e-02 -1.2780592853426909e-03 0.0000000000000000e+00  1.6147573264332729e-01 1.2991886872833209e-03 0.0000000000000000e+00  8.4948891743653835e-03 -1.2612225673449158e-03 0.0000000000000000e+00  1.5256356420336525e-01 1.2417275796903367e-03 0.0000000000000000e+00  3.4527692862925991e-03 3.8578972762570062e-04 0.0000000000000000e+00  1.6654272407414911e-01 -3.7585838832264099e-04 0.0000000000000000e+00  1.2349882742038719e-01 1.3110066752065129e-03 0.0000000000000000e+00  1.4202587372502826e-01 1.3006338950669321e-03 0.0000000000000000e+00  3.8266718728528257e-02 1.3336171681600174e-03 0.0000000000000000e+00  5.6791451094061786e-02 1.3395248920352292e-03 0.0000000000000000e+00  2.7019582560468727e-02 -1.2336527673281182e-03 0.0000000000000000e+00  6.7790584602069062e-02 -1.2180611981573188e-03 0.0000000000000000e+00  7.8099038996395323e-02 1.3364917405000460e-03 0.0000000000000000e+00  8.9101326223882352e-02 -1.2251684476032219e-03 0.0000000000000000e+00  9.9407335280703751e-02 1.3264286663457368e-03 0.0000000000000000e+00  1.1226347044245615e-01 -1.2386766317954629e-03 0.0000000000000000e+00  4.7065214123986274e-02 -1.2194859333001418e-03 0.0000000000000000e+00  1.3230665339656705e-01 -1.2517117409871230e-03 0.0000000000000000e+00  0.0000000000000000e+00 0.0000000000000000e+00 0.0000000000000000e+00  1.6998303265687975e-01 0.0000000000000000e+00 0.0000000000000000e+00  1.4481278226541652e-01 -1.2629502990247003e-03 0.0000000000000000e+00  1.3171546778905549e-01 1.3055557526254768e-03 0.0000000000000000e+00  5.9573283357475935e-02 -1.2174670830314583e-03 0.0000000000000000e+00  4.6482282559427220e-02 1.3374097283855647e-03 0.0000000000000000e+00  6.7445157438381767e-02 1.3391048811096777e-03 0.0000000000000000e+00  8.0884293891549691e-02 -1.2216231605795846e-03 0.0000000000000000e+00  8.8753100039615673e-02 1.3321135340948760e-03 0.0000000000000000e+00  1.0219459811854677e-01 -1.2323404383335075e-03 0.0000000000000000e+00  1.1284419350518947e-01 1.3180634545973567e-03 0.0000000000000000e+00  2.7613705484138388e-02 1.3274111393391155e-03 0.0000000000000000e+00  3.5478788920055737e-02 -1.2250082208128572e-03 0.0000000000000000e+00  1.2072172189229206e-01 -1.2442388408572750e-03 0.0000000000000000e+00  1.6375297593039427e-02 1.3413476020861107e-03 0.0000000000000000e+00  1.7298870999380770e-02 -1.3606480522742868e-03 0.0000000000000000e+00  1.5267811420762148e-01 -1.3822335473887785e-03 0.0000000000000000e+00  1.2473754106461937e-01 -1.5302903522107652e-03 0.0000000000000000e+00  3.9493919233128859e-02 -1.5060737984114686e-03 0.0000000000000000e+00  8.2324432904754795e-03 1.4798107855717229e-03 0.0000000000000000e+00  1.5843402479220964e-01 1.3474544502685616e-04 0.0000000000000000e+00  1.6091727815100085e-01 -1.3946273361889758e-03 0.0000000000000000e+00  1.1569112844731848e-02 -9.7981870835690216e-05 0.0000000000000000e+00  1.1961527737038910e-01 1.7031548318961376e-03 0.0000000000000000e+00  3.4385319691817968e-02 1.7207077682799246e-03 0.0000000000000000e+00  1.4093139009403005e-01 -1.6476267183096695e-03 0.0000000000000000e+00  5.5690022407783056e-02 -1.6073043303521655e-03 0.0000000000000000e+00  7.1586195688607288e-02 -1.5847571440983546e-03 0.0000000000000000e+00  7.7001712349529655e-02 -1.6098672139570830e-03 0.0000000000000000e+00  9.2897176160497502e-02 -1.5930311643312435e-03 0.0000000000000000e+00  9.8312474788343610e-02 -1.6196377246641886e-03 0.0000000000000000e+00  1.0894581683115814e-01 1.6720685517382337e-03 0.0000000000000000e+00  2.3717961315020436e-02 1.6795457306351459e-03 0.0000000000000000e+00  1.3560631872391410e-01 -2.5323765556906790e-03 0.0000000000000000e+00  5.0361215742210967e-02 -2.4973549383233581e-03 0.0000000000000000e+00  1.0868883207534916e-01 -1.6259443354180825e-03 0.0000000000000000e+00  2.3442498463484392e-02 -1.6314596578146962e-03 0.0000000000000000e+00  1.3559616357753354e-01 2.5817845809108847e-03 0.0000000000000000e+00  5.0365623921355851e-02 2.6168832468833792e-03 0.0000000000000000e+00  6.1018147625967772e-02 2.6180312486383294e-03 0.0000000000000000e+00  7.1671024846769044e-02 2.6167200367954724e-03 0.0000000000000000e+00  8.2324258779041565e-02 2.6133834610429963e-03 0.0000000000000000e+00  9.2977844952475741e-02 2.6084682068996811e-03 0.0000000000000000e+00  1.0363178556866955e-01 2.6024140441269199e-03 0.0000000000000000e+00  1.4625284480201894e-01 2.5820361051755746e-03 0.0000000000000000e+00  1.6696273441818132e-01 1.5413437240684861e-03 0.0000000000000000e+00  3.0096694413890711e-03 1.6214903472577895e-03 0.0000000000000000e+00  1.6693700612052176e-01 -9.7089211394396136e-04 0.0000000000000000e+00  2.9203369814867850e-03 -1.4940816050845766e-03 0.0000000000000000e+00  2.3726223109784700e-02 6.6565435908828049e-04 0.0000000000000000e+00  1.4054262564149050e-01 4.1172574317758180e-04 0.0000000000000000e+00  5.5306705966390333e-02 4.5075737036359128e-04 0.0000000000000000e+00  7.6615494204066645e-02 4.4832377528457524e-04 0.0000000000000000e+00  9.7924509318947195e-02 4.3861882990365577e-04 0.0000000000000000e+00  1.2577786618959852e-01 -9.1160625247511875e-05 0.0000000000000000e+00  4.0540114195127763e-02 -6.5662308909242555e-05 0.0000000000000000e+00  3.3550001823003432e-02 -6.9920443076928942e-05 0.0000000000000000e+00  6.5961077382065095e-02 4.5067006601997981e-04 0.0000000000000000e+00  8.7269981255291090e-02 4.4415839912297631e-04 0.0000000000000000e+00  1.1878756038864349e-01 -8.6534666377927362e-05 0.0000000000000000e+00  1.0896122783269278e-01 6.6093750968861478e-04 0.0000000000000000e+00  1.5107344219327778e-01 3.2844474029764090e-04 0.0000000000000000e+00  4.9068540279783692e-03 1.2405015987831751e-03 0.0000000000000000e+00  5.0489595809251553e-02 -1.4457533110562683e-03 0.0000000000000000e+00  1.3573127160075241e-01 -1.4810698620356005e-03 0.0000000000000000e+00  1.0285841505932165e-01 1.5654945287857669e-03 0.0000000000000000e+00  1.4547729370152060e-01 1.5432633364822928e-03 0.0000000000000000e+00  7.0896378476769967e-02 1.5795830615225319e-03 0.0000000000000000e+00  9.2204192548663494e-02 1.5715087420441556e-03 0.0000000000000000e+00  8.1550181218340040e-02 1.5763504878204375e-03 0.0000000000000000e+00  6.0242786687547588e-02 1.5807568467635887e-03 0.0000000000000000e+00  1.2952615606495063e-01 -1.7456469306915993e-03 0.0000000000000000e+00  4.4282550762385818e-02 -1.7162473739415660e-03 0.0000000000000000e+00  1.1429684688019673e-01 -2.5185817502223163e-03 0.0000000000000000e+00  2.9045232266235753e-02 -2.5098651035152970e-03 0.0000000000000000e+00  1.9167080828410264e-02 1.8307550707243846e-03 0.0000000000000000e+00  2.4282483294275573e-02 -6.9217612038236897e-04 0.0000000000000000e+00  1.0952446551068452e-01 -6.9181309390071186e-04 0.0000000000000000e+00  1.2082609063158395e-01 8.5064177889298956e-04 0.0000000000000000e+00  3.5592468053768089e-02 8.6990900632390362e-04 0.0000000000000000e+00  5.6227063156419170e-02 -6.5882202092118003e-04 0.0000000000000000e+00  1.4146564181516624e-01 -6.9941686547801544e-04 0.0000000000000000e+00  7.7537410035212043e-02 -6.6163776577512980e-04 0.0000000000000000e+00  9.8847357441824879e-02 -6.7157071129151584e-04 0.0000000000000000e+00  1.6381956623328578e-01 -1.4773635518790665e-03 0.0000000000000000e+00  1.3502860218238921e-01 1.5677288580138707e-03 0.0000000000000000e+00  4.9795681474405759e-02 1.6026020837082110e-03 0.0000000000000000e+00  1.3148853717158050e-02 2.6135621474515573e-03 0.0000000000000000e+00  7.0386357532316923e-02 -7.4967274493496804e-04 0.0000000000000000e+00  9.1696532653949669e-02 -7.5761276726046638e-04 0.0000000000000000e+00  1.1494626216885276e-01 -1.6414921601777548e-03 0.0000000000000000e+00  2.9700348205944267e-02 -1.6312288094425611e-03 0.0000000000000000e+00  3.2728777159603310e-02 -1.6087299212892911e-03 0.0000000000000000e+00  1.1797405858959255e-01 -1.6240016296741727e-03 0.0000000000000000e+00  1.3526339914391775e-01 -5.7285249037560785e-04 0.0000000000000000e+00  5.0024558702630242e-02 -5.3780690767784136e-04 0.0000000000000000e+00  7.2305805403041559e-02 5.9638074162826691e-05 0.0000000000000000e+00  9.3615152859360673e-02 5.1118315903511406e-05 0.0000000000000000e+00  3.1405640823529708e-02 1.7188350616468297e-03 0.0000000000000000e+00  1.1663510610645898e-01 1.7051303390285258e-03 0.0000000000000000e+00  1.0349900186726588e-01 -4.2947216415447335e-04 0.0000000000000000e+00  8.2189316357769215e-02 -4.1844710229601889e-04 0.0000000000000000e+00  6.0879366718101222e-02 -4.1376746768042298e-04 0.0000000000000000e+00  1.4611839013435063e-01 -4.5874083813033501e-04 0.0000000000000000e+00  4.1184626978591335e-02 1.7246766801723382e-03 0.0000000000000000e+00  1.2641568961745725e-01 1.6986187461565405e-03 0.0000000000000000e+00  1.9020033046781428e-02 3.8611311957654113e-05 0.0000000000000000e+00  2.8917287757313070e-02 5.2389404866686471e-04 0.0000000000000000e+00  1.1415178135202758e-01 5.1356893145628163e-04 0.0000000000000000e+00  4.5175440973802862e-02 5.3337559414478599e-04 0.0000000000000000e+00  1.3041110969884750e-01 5.0280926734366023e-04 0.0000000000000000e+00  2.0220161631621103e-02 -1.6430627075303987e-03 0.0000000000000000e+00  1.0511310782145200e-01 -1.6236995933121617e-03 0.0000000000000000e+00  8.3802635331638398e-02 -1.6123747926456941e-03 0.0000000000000000e+00  6.2491241783142019e-02 -1.6071297098886714e-03 0.0000000000000000e+00  1.4773013976833294e-01 -1.6595569044293454e-03 0.0000000000000000e+00  8.7658546019903472e-02 -2.5031432365760944e-03 0.0000000000000000e+00  6.6346314936498965e-02 -2.4965810145561396e-03 0.0000000000000000e+00  4.5039490667916134e-02 2.6152145933579212e-03 0.0000000000000000e+00  1.3026825583969792e-01 2.5850929799128546e-03 0.0000000000000000e+00  8.7781637124539000e-02 -4.3016165199138057e-04 0.0000000000000000e+00  6.6471745973834803e-02 -4.2347927582479659e-04 0.0000000000000000e+00  1.5193648619300709e-01 -5.2189167007002965e-04 0.0000000000000000e+00  2.9060231381857392e-02 2.6065142075876241e-03 0.0000000000000000e+00  1.1428607467566165e-01 2.5956615311824604e-03 0.0000000000000000e+00  1.5157127345359916e-01 2.5926795881986526e-03 0.0000000000000000e+00  1.4991363196227109e-01 1.7140804922018632e-03 0.0000000000000000e+00  3.8525833162252367e-02 -6.8936637935297824e-04 0.0000000000000000e+00  1.2376614771955993e-01 -7.1248500438251226e-04 0.0000000000000000e+00  1.5922856278799086e-01 -7.2333011993394288e-04 0.0000000000000000e+00  7.6997604461340644e-02 2.6152596447293723e-03 0.0000000000000000e+00  7.5328255575086878e-02 1.7411540305323965e-03 0.0000000000000000e+00  5.5691849665638928e-02 2.6177625295385363e-03 0.0000000000000000e+00  5.4021342816188561e-02 1.7430002214871181e-03 0.0000000000000000e+00  9.8304775389469065e-02 2.6055468723036467e-03 0.0000000000000000e+00  9.6636099222608851e-02 1.7318215178170463e-03 0.0000000000000000e+00  1.4092470980114483e-01 2.5798081058336394e-03 0.0000000000000000e+00  1.3925472345934856e-01 1.7052341110832287e-03 0.0000000000000000e+00  8.7651013406465542e-02 2.6110819457105584e-03 0.0000000000000000e+00  8.5982060941727140e-02 1.7372017057257188e-03 0.0000000000000000e+00  6.6344550346300615e-02 2.6176336971335443e-03 0.0000000000000000e+00  6.4674681841453960e-02 1.7432347244083967e-03 0.0000000000000000e+00  2.4738473529176542e-03 -7.9815443260969647e-04 0.0000000000000000e+00  1.6753394671858207e-01 7.4794879833616336e-04 0.0000000000000000e+00  6.0301944258465905e-02 7.0877868613525991e-04 0.0000000000000000e+00  8.1610460009307162e-02 7.0432696332296937e-04 0.0000000000000000e+00  1.4553867699748002e-01 6.6922680964716320e-04 0.0000000000000000e+00  1.3080462310935656e-01 -5