<?xml version="1.0"?>
<VTKFile type="UnstructuredGrid"  version="0.1"  >
<UnstructuredGrid>
<Piece  NumberOfPoints="820" NumberOfCells="1464">
<Points>
<DataArray  type="Float64"  NumberOfComponents="3"  format="ascii">0 0.1 0  0 0 0  1 0 0  1 0.1 0  0.5 0 0  0.5 0.1 0  0.25 0 0  0.25 0.1 0  0.75 0.1 0  0.75 0 0  0.375 0.1 0  0.375 0 0  0.125 0 0  0.125 0.1 0  0.625 0 0  0.625 0.1 0  0.875 0.1 0  0.875 0 0  0.6875 0.1 0  0.6875 0 0  0.5625 0 0  0.5625 0.1 0  0.0625 0.1 0  0.0625 0 0  0.1875 0.1 0  0.1875 0 0  0.3125 0 0  0.3125 0.1 0  0.4375 0.1 0  0.4375 0 0  0.8125 0 0  0.8125 0.1 0  0.9375 0.1 0  0.9375 0 0  0.84375 0.05000000000000001 0  0.78125 0.05 0  0.34375 0.05000000000000001 0  0.28125 0.05 0  0.15625 0.05 0  0.21875 0.05000000000000001 0  0 0.05 0  0.09375 0.05000000000000001 0  0.40625 0.05 0  0.46875 0.05000000000000001 0  0.53125 0.05 0  0.59375 0.05000000000000001 0  0.65625 0.05 0  0.71875 0.05000000000000001 0  0.90625 0.05 0  1 0.05 0  0.046875 0.04453125000000001 0  0.953125 0.05546875 0  0.96875 0 0  0.03125 0.1 0  0.03125 0 0  0.96875 0.1 0  1 0.07500000000000001 0  0.875 0.06523437500000001 0  0.8715625 0.03261718750000001 0  0.84375 0 0  0.90625 0.1 0  0.625 0.06523437500000001 0  0.6215625 0.03261718750000001 0  0.59375 0 0  0.6875 0.034765625 0  0.6840625 0.0673828125 0  0.65625 0.1 0  0.71875 0 0  0.5625 0.06523437500000001 0  0.5590625 0.03261718750000001 0  0.53125 0 0  0.65625 0 0  0.59375 0.1 0  0.5 0.06523437500000001 0  0.4965625 0.03261718750000001 0  0.46875 0 0  0.53125 0.1 0  0.4375 0.06523437500000001 0  0.4340625 0.03261718750000001 0  0.40625 0 0  0.46875 0.1 0  0.375 0.06523437500000001 0  0.3715625 0.03261718750000001 0  0.34375 0 0  0.40625 0.1 0  0.09375 0 0  0.09375 0.1 0  0.125 0.06523437500000001 0  0.1215625 0.03261718750000001 0  0.1875 0.034765625 0  0.1840625 0.0673828125 0  0.15625 0.1 0  0.21875 0 0  0.15625 0 0  0.28125 0.1 0  0.3125 0.06523437500000001 0  0.3090625 0.03261718750000001 0  0.28125 0 0  0.25 0.034765625 0  0.2534375 0.0673828125 0  0.21875 0.1 0  0.34375 0.1 0  0.78125 0.1 0  0.8125 0.06523437500000001 0  0.8090625 0.03261718750000001 0  0.78125 0 0  0.75 0.034765625 0  0.7534375 0.0673828125 0  0.71875 0.1 0  0.90625 0 0  0.84375 0.1 0  0.9740776699029127 0.03143583131067961 0  0.921875 0.075 0  0 0.025 0  0.02592233009708738 0.06856416868932039 0  0.0725 0.028515625 0  0.921875 0.025 0  0.078125 0.07500000000000001 0  0.9484670937186905 0.0242372460741816 0  0.05153290628130947 0.07576275392581842 0  0.8963594872172794 0.02643561701079966 0  0.02229817708333334 0.0375 0  0.9777018229166666 0.06250000000000001 0  0.72590087890625 0.025 0  0.8345789124085022 0.025 0  0.22590087890625 0.025 0  0.3345789124085023 0.025 0  0.15996337890625 0.075 0  0.39909912109375 0.075 0  0.4595789124085023 0.025 0  0.52409912109375 0.075 0  0.5845789124085022 0.025 0  0.65996337890625 0.075 0  0.27753662109375 0.075 0  0.77753662109375 0.075 0  0 0.07500000000000001 0  1 0.025 0  0.85090087890625 0.07500000000000001 0  0.77409912109375 0.025 0  0.35090087890625 0.07500000000000001 0  0.27409912109375 0.025 0  0.3970789124085022 0.025 0  0.47590087890625 0.07500000000000001 0  0.5220789124085022 0.025 0  0.60090087890625 0.07500000000000001 0  0.66340087890625 0.025 0  0.16340087890625 0.025 0  0.2095789124085023 0.07500000000000001 0  0.7095789124085022 0.07500000000000001 0  0.0974991439537346 0.02496950333675565 0  0.1029665898617512 0.07685681883640554 0  0.8970334101382489 0.07685681883640554 0  0.7331321502083639 0.0805418246751822 0  0.2331321502083639 0.08054182467518221 0  0.04967773437499999 0.02050781250000001 0  0.9302821601941748 0.04763728762135922 0  0.9453125 0.07773437499999999 0  0.06981448887637284 0.05242311804773303 0  0.703125 0.0173828125 0  0.203125 0.0173828125 0  0.828125 0.08261718750000001 0  0.328125 0.08261718750000001 0  0.4213608787615672 0.08215505604972331 0  0.453125 0.08261718750000001 0  0.5463608787615671 0.08215505604972331 0  0.578125 0.08261718750000001 0  0.6405370048634059 0.0181271643224308 0  0.1405370048634059 0.0181271643224308 0  0.796875 0.1 0  0.296875 0.1 0  0.6389903131525874 0.08261718750000001 0  0.1389903131525873 0.08261718750000001 0  0.796875 0 0  0.296875 0 0  0.359375 0 0  0.421875 0 0  0.484375 0 0  0.546875 0 0  0.609375 0 0  0.859375 0 0  0.984375 0 0  0.015625 0 0  0.9808265015870887 0.08306437698386088 0  0.015625 0.1 0  0.140615310157384 0.03789815460447876 0  0.8258710430305984 0.04237660226422156 0  0.3258710430305984 0.04237660226422154 0  0.4508710430305984 0.04237660226422154 0  0.5758710430305984 0.04237660226422156 0  0.73925254007477 0.05238802290978471 0  0.23925254007477 0.05238802290978471 0  0.19824745992523 0.05238802290978471 0  0.3883710430305984 0.04237660226422155 0  0.5133710430305984 0.04237660226422155 0  0.69824745992523 0.05238802290978471 0  0.6406153101573839 0.03789815460447876 0  0.8875652355519991 0.04398459561477483 0  0.03011990291140283 0.01954869700666445 0  0.2976228417042103 0.07944206017604956 0  0.7976228417042103 0.07944206017604956 0  0.6048261925064409 0.0202852140350185 0  0.8548261925064409 0.0202852140350185 0  0.4173261925064409 0.02028521403501849 0  0.5423261925064409 0.02028521403501849 0  0.479826192506441 0.02028521403501848 0  0.354826192506441 0.02028521403501848 0  0.7612196085333947 0.08469269433495656 0  0.2612196085333947 0.08469269433495656 0  0.671875 0.1 0  0.171875 0.1 0  0.1138156987561534 0.01531102667280419 0  0.1439032206506398 0.06434174268079966 0  0.6439032206506399 0.06434174268079966 0  0.7102169938849521 0.03403655887996306 0  0.2102169938849521 0.03403655887996306 0  0.331272668838501 0.06407394409179688 0  0.8312726688385009 0.06407394409179688 0  0.456272668838501 0.06407394409179688 0  0.5812726688385009 0.06407394409179688 0  0.9626931005513372 0.08290734481438196 0  0.7935362330470901 0.01983307912641665 0  0.2935362330470901 0.01983307912641665 0  0.078125 0 0  0.4143262322415116 0.06583278773374907 0  0.5393262322415115 0.06583278773374907 0  0.6756954193768612 0.08284197013692297 0  0.1756954193768612 0.08284197013692297 0  0.1934564775596677 0.08246105735569852 0  0.6934564775596677 0.0824610573556985 0  0.7948904737904949 0.06168801049385652 0  0.2948904737904949 0.06168801049385652 0  0.42558837890625 0.05 0  0.55058837890625 0.05 0  0.185643310546875 0.0173828125 0  0.685643310546875 0.0173828125 0  0.6085613945093048 0.05928612183988766 0  0.4835613945093048 0.05928612183988766 0  0.3585613945093048 0.05928612183988766 0  0.8585613945093048 0.05928612183988766 0  0.2430157823768409 0.0173828125 0  0.743015782376841 0.0173828125 0  0.11308837890625 0.05 0  0.1710613945093048 0.04071387816011236 0  0.6710613945093048 0.04071387816011236 0  0.2664386054906952 0.04071387816011236 0  0.7664386054906952 0.04071387816011236 0  0.1200872144236349 0.08261718750000001 0  0.618015782376841 0.08261718750000001 0  0.4930157823768409 0.08261718750000001 0  0.3680157823768409 0.08261718750000001 0  0.868015782376841 0.08261718750000001 0  0.515625 0.1 0  0.390625 0.1 0  0.265625 0 0  0.765625 0 0  0.516365031953596 0.05946768293606444 0  0.3913650319535959 0.05946768293606444 0  0.8926135952226929 0.06033018746614476 0  0.171875 0 0  0.671875 0 0  0.890625 0 0  0.8808652108632187 0.0171078614816925 0  0.2274441083295474 0.06456313374723947 0  0.7274441083295474 0.06456313374723946 0  0.9350285939903868 0.06406852472525566 0  0.453125 0 0  0.4433265752246126 0.01710378970181546 0  0.328125 0 0  0.3183265752246126 0.01710378970181546 0  0.578125 0 0  0.5683265752246126 0.01710378970181545 0  0.828125 0 0  0.8183265752246126 0.01710378970181545 0  0.515625 0 0  0.5058265752246126 0.01710378970181545 0  0.390625 0 0  0.3808265752246126 0.01710378970181545 0  0.01564771141956889 0.08260299286276945 0  0.9843522885804311 0.01739700713723054 0  0.3551736619148977 0.03733645281383641 0  0.4801736619148977 0.03733645281383641 0  0.8551736619148977 0.03733645281383642 0  0.7687346279121444 0.06091681090943113 0  0.2687346279121444 0.06091681090943113 0  0.6687653720878556 0.06091681090943113 0  0.1687653720878556 0.06091681090943113 0  0.6051736619148977 0.03733645281383642 0  0.2924478939734164 0.03697522410746614 0  0.7924478939734163 0.03697522410746614 0  0.8719142286486647 0.04906985056606887 0  0.6274213820068905 0.04848945596065109 0  0.4983341418505795 0.04892020701904073 0  0.3733341418505795 0.04892020701904073 0  0.3108341418505795 0.04892020701904073 0  0.8108341418505794 0.04892020701904073 0  0.6242024164762008 0.01640567476785111 0  0.3848561971730207 0.08410836408489761 0  0.5098561971730207 0.08410836408489761 0  0.2598561971730207 0.01589163591510238 0  0.7598561971730207 0.01589163591510238 0  0.890625 0.1 0  0.9582054159658413 0.03874795528975266 0  0.03565822065430611 0.08308352918541601 0  0.9643417793456939 0.016916470814584 0  0 0.0625 0  0.0168287001921521 0.05388159890776699 0  0.0417945840341587 0.06125204471024735 0  0.9831712998078479 0.04611840109223304 0  0.5622607296296599 0.08116332765030569 0  0.4372607296296599 0.08116332765030566 0  0.046875 0.1 0  0.953125 0 0  0.415919189453125 0.03668247284720479 0  0.540919189453125 0.03668247284720479 0  0.0859375 0.01393925506164327 0  0.109375 0.1 0  0.1338555271916189 0.05216484236021472 0  0.953125 0.1 0  0.140625 0 0  0.640625 0 0  0.546875 0.1 0  0.421875 0.1 0  0.203125 0 0  0.703125 0 0  0.046875 0 0  0.234375 0.1 0  0.734375 0.1 0  0.078125 0.1 0  0.921875 0 0  0.921875 0.1 0  0.828125 0.1 0  0.328125 0.1 0  0.453125 0.1 0  0.578125 0.1 0  0.640625 0.1 0  0.140625 0.1 0  0.984375 0.1 0  0.765625 0.1 0  0.265625 0.1 0  0.109375 0 0  0.203125 0.1 0  0.703125 0.1 0  0.234375 0 0  0.734375 0 0  0.609375 0.1 0  0.484375 0.1 0  0.359375 0.1 0  0.859375 0.1 0  0.03162846341645094 0.04971906156616034 0  0.9677597279973049 0.05078312969016881 0  0.8125319459969864 0.08431483734279674 0  0.3125319459969864 0.08431483734279674 0  0.01533347852251798 0.02378565849770013
[...]
<PointData  Vectors="damage"> 
<DataArray  type="Float64"  Name="damage"  NumberOfComponents="3" format="ascii">0.0000000000000000e+00 0.0000000000000000e+00 0.0000000000000000e+00  0.0000000000000000e+00 0.0000000000000000e+00 0.0000000000000000e+00  3.8246182347797941e-01 0.0000000000000000e+00 0.0000000000000000e+00  3.8246182347797941e-01 0.0000000000000000e+00 0.0000000000000000e+00  4.1836537862379179e-04 3.2873407754362843e-04 0.0000000000000000e+00  1.8349640128332480e-04 -1.5529342214213760e-04 0.0000000000000000e+00  2.4075664120117599e-05 -1.7643671425941599e-05 0.0000000000000000e+00  3.5057498718226675e-05 -2.1212763946519677e-05 0.0000000000000000e+00  3.8245542873073990e-01 6.2230673910038361e-05 0.0000000000000000e+00  3.8240908433850185e-01 6.5811523434262904e-05 0.0000000000000000e+00  4.9140351412484595e-05 -3.5003431697480304e-05 0.0000000000000000e+00  3.9878882923691719e-05 -3.1690786353768982e-05 0.0000000000000000e+00  1.0752490677855909e-05 -4.5867937633427479e-06 0.0000000000000000e+00  1.8637247987780933e-05 -8.1811772653153823e-06 0.0000000000000000e+00  3.8238602076216571e-01 1.3490511779394682e-04 0.0000000000000000e+00  3.8244847836840939e-01 1.3162714475358557e-04 0.0000000000000000e+00  3.8245992540787876e-01 1.6018931109537144e-05 0.0000000000000000e+00  3.8243433585530673e-01 1.9578844004841732e-05 0.0000000000000000e+00  3.8245234699458575e-01 9.4380876475563461e-05 0.0000000000000000e+00  3.8239732105104213e-01 9.7903085884712659e-05 0.0000000000000000e+00  3.8237162733922758e-01 1.7871518910669875e-04 0.0000000000000000e+00  3.8244114248736288e-01 1.7144315611227970e-04 0.0000000000000000e+00  9.6366937439084101e-06 -3.8463653810526158e-06 0.0000000000000000e+00  5.0701152421570763e-06 -2.8461338663821551e-07 0.0000000000000000e+00  2.7146736095593069e-05 -1.4214182876496210e-05 0.0000000000000000e+00  1.7115142745111688e-05 -1.0639569962581307e-05 0.0000000000000000e+00  3.1631407691742930e-05 -2.4875897840936284e-05 0.0000000000000000e+00  4.2360479636622494e-05 -2.8426019287710387e-05 0.0000000000000000e+00  5.7459545394556740e-05 -4.1401467944686322e-05 0.0000000000000000e+00  5.1503419303893674e-05 -3.5843592968287863e-05 0.0000000000000000e+00  3.8242142865285800e-01 3.9441130238633569e-05 0.0000000000000000e+00  3.8245798017010879e-01 3.5873763257532088e-05 0.0000000000000000e+00  3.8246115440699396e-01 3.4147232998605766e-06 0.0000000000000000e+00  3.8244777574375816e-01 6.9924607804379194e-06 0.0000000000000000e+00  3.8244340713949387e-01 2.6198947564229073e-05 0.0000000000000000e+00  3.8243597023946235e-01 4.9447507445523694e-05 0.0000000000000000e+00  4.0705806539287699e-05 -3.0197208127361176e-05 0.0000000000000000e+00  3.3287135774929882e-05 -2.3074976609583821e-05 0.0000000000000000e+00  1.8417752599138374e-05 -9.1078334671472184e-06 0.0000000000000000e+00  2.5848558396830101e-05 -1.5795272229378963e-05 0.0000000000000000e+00  0.0000000000000000e+00 0.0000000000000000e+00 0.0000000000000000e+00  1.0957209163592756e-05 -3.7618974854466714e-06 0.0000000000000000e+00  4.7719204305111669e-05 -3.6414673984548972e-05 0.0000000000000000e+00  5.8586155903859936e-05 -4.1851701027759716e-05 0.0000000000000000e+00  3.8239951511950698e-01 1.9641999729048091e-04 0.0000000000000000e+00  3.8241416479717150e-01 1.5313902075711629e-04 0.0000000000000000e+00  3.8242112705015940e-01 1.1367074237004360e-04 0.0000000000000000e+00  3.8242854893453071e-01 7.8888280058205218e-05 0.0000000000000000e+00  3.8245085688343367e-01 9.8230534855371855e-06 0.0000000000000000e+00  3.8246182347797941e-01 0.0000000000000000e+00 0.0000000000000000e+00  5.1293387375748427e-06 -9.0926605523515575e-07 0.0000000000000000e+00  3.8245704627920818e-01 2.3046951377524369e-06 0.0000000000000000e+00  3.8245452754141829e-01 3.3628781491934795e-06 0.0000000000000000e+00  5.0575831955567147e-06 -2.2842759052991746e-06 0.0000000000000000e+00  2.6223556322349738e-06 7.4707679535590134e-07 0.0000000000000000e+00  3.8246142955300749e-01 3.6260211036137799e-07 0.0000000000000000e+00  3.8246182347797947e-01 0.0000000000000000e+00 0.0000000000000000e+00  3.8245099766748164e-01 1.6610577430444770e-05 0.0000000000000000e+00  3.8244219446576067e-01 1.8740653810372995e-05 0.0000000000000000e+00  3.8242778679848843e-01 2.8704751340339081e-05 0.0000000000000000e+00  3.8246060949856314e-01 8.7218950994814226e-06 0.0000000000000000e+00  3.8242696699164591e-01 1.3246169212698586e-04 0.0000000000000000e+00  3.8240622340262082e-01 1.3560833436885111e-04 0.0000000000000000e+00  3.8237995812661901e-01 1.5536536480356553e-04 0.0000000000000000e+00  3.8241647365749848e-01 9.6238336744744010e-05 0.0000000000000000e+00  3.8243401307620400e-01 9.7029822145636776e-05 0.0000000000000000e+00  3.8245053466146278e-01 1.1239514842055533e-04 0.0000000000000000e+00  3.8240313513854801e-01 8.1162407024708730e-05 0.0000000000000000e+00  3.8242030530255100e-01 1.7336943565391237e-04 0.0000000000000000e+00  3.8239692249134821e-01 1.7843915067870984e-04 0.0000000000000000e+00  3.8235190607468705e-01 2.1397132555294601e-04 0.0000000000000000e+00  3.8239168546686220e-01 1.1585629083084471e-04 0.0000000000000000e+00  3.8244584366113793e-01 1.5170758166253414e-04 0.0000000000000000e+00  1.2651624871719221e-04 -5.3834422546711806e-05 0.0000000000000000e+00  2.0689485959008485e-04 -2.9504991420871645e-05 0.0000000000000000e+00  6.9971755158661038e-05 -2.6726361553774808e-05 0.0000000000000000e+00  3.8242480504419513e-01 1.8393228152988105e-04 0.0000000000000000e+00  5.2545354507796104e-05 -3.9726432154158730e-05 0.0000000000000000e+00  5.0115755052570716e-05 -3.7857282571107145e-05 0.0000000000000000e+00  4.4596850672746211e-05 -3.4579528672690683e-05 0.0000000000000000e+00  6.8569014994470455e-05 -4.9010420561189416e-05 0.0000000000000000e+00  4.5744245082094750e-05 -3.3915359138037563e-05 0.0000000000000000e+00  4.2377863885646765e-05 -3.2563826282648172e-05 0.0000000000000000e+00  3.5633779345475296e-05 -2.8363848170473555e-05 0.0000000000000000e+00  5.2668258086737282e-05 -3.7902391794212129e-05 0.0000000000000000e+00  7.8217744431655161e-06 -2.1605594466853921e-06 0.0000000000000000e+00  1.4172535284572543e-05 -5.7722943652653115e-06 0.0000000000000000e+00  1.5857781411054204e-05 -6.7877686566371884e-06 0.0000000000000000e+00  1.2985844953962131e-05 -5.3247562593276926e-06 0.0000000000000000e+00  2.0645724249201356e-05 -1.1796561635321987e-05 0.0000000000000000e+00  2.3403078326659160e-05 -1.2596640161497192e-05 0.0000000000000000e+00  2.2968061838268367e-05 -1.1019831207086285e-05 0.0000000000000000e+00  2.0519719547846817e-05 -1.4066269224094069e-05 0.0000000000000000e+00  1.3852939788613484e-05 -7.4549373792793173e-06 0.0000000000000000e+00  3.8784792437999490e-05 -2.4842724446065369e-05 0.0000000000000000e+00  3.8599434051553822e-05 -2.7234611062698390e-05 0.0000000000000000e+00  3.4766022271000045e-05 -2.5683750553063525e-05 0.0000000000000000e+00  2.7778786551477298e-05 -2.1275935414984314e-05 0.0000000000000000e+00  2.7934685969772993e-05 -1.8865440245415078e-05 0.0000000000000000e+00  3.1844143220830346e-05 -2.0432760970239686e-05 0.0000000000000000e+00  3.1171069871834532e-05 -1.7637824539674752e-05 0.0000000000000000e+00  4.5786290408469325e-05 -3.1855287868956834e-05 0.0000000000000000e+00  3.8245680464317905e-01 4.8263935295987084e-05 0.0000000000000000e+00  3.8244521482026750e-01 3.6562549833196679e-05 0.0000000000000000e+00  3.8243285727028592e-01 3.9046272433727899e-05 0.0000000000000000e+00  3.8241515164086465e-01 5.1842945140696348e-05 0.0000000000000000e+00  3.8242524280043944e-01 6.4048774226257264e-05 0.0000000000000000e+00  3.8244057450384222e-01 6.1293792712744822e-05 0.0000000000000000e+00  3.8245398347079018e-01 7.7600849634497119e-05 0.0000000000000000e+00  3.8244103535282098e-01 1.2351250117354993e-05 0.0000000000000000e+00  3.8245898698132907e-01 2.5045589897885461e-05 0.0000000000000000e+00  3.8245800191724988e-01 1.2327745928245934e-06 0.0000000000000000e+00  3.8245677040873394e-01 6.1347671659626143e-06 0.0000000000000000e+00  0.0000000000000000e+00 0.0000000000000000e+00 0.0000000000000000e+00  3.1994741487490446e-06 -8.5349258417862141e-07 0.0000000000000000e+00  7.3699149724862503e-06 -1.6370717611692244e-06 0.0000000000000000e+00  3.8244863352789060e-01 7.9439281891445190e-06 0.0000000000000000e+00  1.0430148802422329e-05 -3.6968461316123028e-06 0.0000000000000000e+00  3.8245308313907944e-01 4.0945679019444283e-06 0.0000000000000000e+00  6.8613699517217339e-06 -2.2431044605236487e-06 0.0000000000000000e+00  3.8244466635160851e-01 1.2919515418810946e-05 0.0000000000000000e+00  2.2216460619217279e-06 -2.0671092390086224e-08 0.0000000000000000e+00  3.8245997792668296e-01 2.4657806745746625e-07 0.0000000000000000e+00  3.8241696440470535e-01 7.6252736081227140e-05 0.0000000000000000e+00  3.8243416144641601e-01 3.0260343233801642e-05 0.0000000000000000e+00  2.4066519836936141e-05 -1.5730936169505144e-05 0.0000000000000000e+00  3.7092048514145741e-05 -2.8303660482747843e-05 0.0000000000000000e+00  2.1107060223662476e-05 -1.0396957058641913e-05 0.0000000000000000e+00  4.9293765057226227e-05 -3.6435417958500294e-05 0.0000000000000000e+00  5.5567899794033328e-05 -3.6875431846681904e-05 0.0000000000000000e+00  3.8241216369367143e-01 1.9402042410446857e-04 0.0000000000000000e+00  3.8239604833144780e-01 1.6027164764945799e-04 0.0000000000000000e+00  3.8243610626215663e-01 1.1073009410458233e-04 0.0000000000000000e+00  3.5543802640052243e-05 -2.3528307372260425e-05 0.0000000000000000e+00  3.8244603454199749e-01 5.0317911420027360e-05 0.0000000000000000e+00  0.0000000000000000e+00 0.0000000000000000e+00 0.0000000000000000e+00  3.8246182347797947e-01 0.0000000000000000e+00 0.0000000000000000e+00  3.8245167509440758e-01 2.3225287405898084e-05 0.0000000000000000e+00  3.8242447502513638e-01 5.3569600174660175e-05 0.0000000000000000e+00  4.4009174971836429e-05 -3.1786372709369386e-05 0.0000000000000000e+00  2.9732271621875656e-05 -2.1340113202187206e-05 0.0000000000000000e+00  4.4918209604941076e-05 -3.4838310268222451e-05 0.0000000000000000e+00  6.2404625316493079e-05 -4.8641264547494931e-05 0.0000000000000000e+00  3.8236192376847389e-01 2.1725326519775564e-04 0.0000000000000000e+00  3.8243077841506373e-01 1.4775000180036171e-04 0.0000000000000000e+00  3.8240751036378712e-01 1.1041523179242069e-04 0.0000000000000000e+00  1.6981831047952560e-05 -8.9585773246803068e-06 0.0000000000000000e+00  2.7331673867893221e-05 -1.5667273871357990e-05 0.0000000000000000e+00  3.8244040308940530e-01 8.2900994378395864e-05 0.0000000000000000e+00  9.8314510602923235e-06 -3.1688883858249880e-06 0.0000000000000000e+00  1.3857068485750948e-05 -5.4640737136214034e-06 0.0000000000000000e+00  3.8245543012320998e-01 1.0984584019525776e-05 0.0000000000000000e+00  3.8244511804120812e-01 7.0707576380567663e-05 0.0000000000000000e+00  3.0815419446045580e-05 -1.8548268728994792e-05 0.0000000000000000e+00  4.7024336737370378e-06 -2.7896107460780594e-07 0.0000000000000000e+00  3.8245342308440855e-01 5.5572450573487830e-06 0.0000000000000000e+00  3.8245868820427004e-01 2.6587888680375478e-06 0.0000000000000000e+00  8.1862291675223890e-06 -2.3147826640932762e-06 0.0000000000000000e+00  3.8240945571811946e-01 8.8472720986994936e-05 0.0000000000000000e+00  2.0654954943593520e-05 -1.2905806743016203e-05 0.0000000000000000e+00  3.8245256051453363e-01 3.0514308570816478e-05 0.0000000000000000e+00  4.2226171027865202e-05 -2.9587035443266818e-05 0.0000000000000000e+00  5.2537715449387351e-05 -3.8710541063958794e-05 0.0000000000000000e+00  5.7454940310433598e-05 -4.2892542771622124e-05 0.0000000000000000e+00  3.8242766816404594e-01 1.8193661255401348e-04 0.0000000000000000e+00  3.8243317810609911e-01 1.6243688423056720e-04 0.0000000000000000e+00  3.8239991779480970e-01 1.2438990782894077e-04 0.0000000000000000e+00  1.3880918426997392e-05 -6.5248582974945781e-06 0.0000000000000000e+00  3.8245743005720623e-01 4.1880596319882225e-05 0.0000000000000000e+00  4.0592822302433475e-05 -2.6648810032271456e-05 0.0000000000000000e+00  3.8243882407474822e-01 1.2327494338100533e-04 0.0000000000000000e+00  1.9068027227054478e-05 -8.7003555260570582e-06 0.0000000000000000e+00  3.8241826668763790e-01 4.5425409240713460e-05 0.0000000000000000e+00  2.9684912639664507e-05 -2.3085848140083223e-05 0.0000000000000000e+00  3.7712964283714056e-05 -3.0060992813730323e-05 0.0000000000000000e+00  4.7565092700467226e-05 -3.5623114041337342e-05 0.0000000000000000e+00  1.0200110996602273e-04 -2.3343383582886433e-06 0.0000000000000000e+00  3.8236419165117813e-01 1.9357935479347225e-04 0.0000000000000000e+00  3.8238312500652344e-01 1.4490717784245712e-04 0.0000000000000000e+00  3.8243104702955794e-01 2.3900049014255418e-05 0.0000000000000000e+00  3.8245791966017162e-01 1.9253399502707230e-06 0.0000000000000000e+00  1.4260100476553607e-06 7.6464283481439942e-07 0.0000000000000000e+00  3.8246099269824319e-01 -8.6097090502454825e-08 0.0000000000000000e+00  2.6849751252387959e-06 -1.3962658831521613e-06 0.0000000000000000e+00  1.5552439882182223e-05 -7.1897447928666958e-06 0.0000000000000000e+00  3.8243868254287078e-01 3.2484254339005243e-05 0.0000000000000000e+00  3.7812881321756273e-05 -2.7950049501489311e-05 0.0000000000000000e+00  5.3167446048069473e-05 -3.9265521670508086e-05 0.0000000000000000e+00  3.8240692072159321e-01 1.6554219559759535e-04 0.0000000000000000e+00  3.8243210250315463e-01 6.8520010253748616e-05 0.0000000000000000e+00  2.8543208018843644e-05 -1.8239274796746118e-05 0.0000000000000000e+00  2.3649661521479532e-05 -1.3585251911569380e-05 0.0000000000000000e+00  4.5168737376210708e-05 -3.4543823131350161e-05 0.0000000000000000e+00  3.8232983947117805e-01 2.2095015527134453e-04 0.0000000000000000e+00  3.8242736921309600e-01 8.9657667966029452e-05 0.0000000000000000e+00  3.8241197474093869e-01 1.2355204157062598e-04 0.0000000000000000e+00  3.8244725242373662e-01 1.4177640841285198e-05 0.0000000000000000e+00  2.7603490682028849e-06 2.7943164110456418e-07 0.0000000000000000e+00  3.8386455257459926e-05 -2.6023330056334410e-05 0.0000000000000000e+00  3.8244935787816309e-01 4.1906206852736777e-05 0.0000000000000000e+00  3.8239585406478238e-01 1.4686325741653083e-04 0.0000000000000000e+00  3.8243608750882846e-01 2.4077750465795268e-05 0.0000000000000000e+00  4.7339872354192953e-05 -3.6362736597821883e-05 0.0000000000000000e+00  3.8238177254352168e-01 1.9442470675480483e-04 0.0000000000000000e+00  6.8424232236290969e-05 -2.8451665804378213e-05 0.0000000000000000e+00  3.9154715489290087e-05 -3.0357160233001815e-05 0.0000000000000000e+00  3.8244905277468427e-01 5.7333433192056893e-05 0.0000000000000000e+00  3.4672907655784153e-05 -2.1963912645486503e-05 0.0000000000000000e+00  3.8245145163971428e-01 1.0321990622660460e-04 0.0000000000000000e+00  2.5076361001454992e-05 -1.2578198621148734e-05 0.0000000000000000e+00  1.0857295547956057e-05 -4.1216388742337377e-06 0.0000000000000000e+00  1.8145368962194855e-05 -8.4522627084754161e-06 0.0000000000000000e+00  3.8242830351095108e-01 1.2072277152649036e-04 0.0000000000000000e+00  3.8241923784835130e-01 8.3972244358731724e-05 0.0000000000000000e+00  2.3199256272885518e-05 -1.4269458925120772e-05 0.0000000000000000e+00  4.0663408443747587e-05 -2.9304006985360372e-05 0.0000000000000000e+00  3.8244657764669315e-01 2.9887182823466168e-05 0.0000000000000000e+00  5.5423989379336631e-05 -4.2076459774223985e-05 0.0000000000000000e+00  3.8242192210989556e-01 1.6100442467610626e-04 0.0000000000000000e+00  3.8246010946178371e-01 8.5843153232159929e-07 0.0000000000000000e+00  3.8242550963277577e-01 4.5688221337791052e-05 0.0000000000000000e+00  3.1499313439230657e-05 -2.3424550823184046e-05 0.0000000000000000e+00  6.4169546902404992e-06 -1.1457268066241520e-06 0.0000000000000000e+00  4.9962587107153835e-05 -3.7544206083244286e-05 0.0000000000000000e+00  3.8241535934192228e-01 1.8783750099034765e-04 0.0000000000000000e+00  3.8244190549754953e-01 1.0137482886043231e-04 0.0000000000000000e+00  2.3866336036639448e-05 -1.2299142132279848e-05 0.0000000000000000e+00  2.6083842272141346e-05 -1.4169681883051372e-05 0.0000000000000000e+00  3.8244309307108881e-01 9.1412383905688149e-05 0.0000000000000000e+00  3.8244217637249994e-01 4.3468733494982171e-05 0.0000000000000000e+00  3.6154826081322277e-05 -2.5082857593358498e-05 0.0000000000000000e+00  4.9815470471478084e-05 -3.8030380641036276e-05 0.0000000000000000e+00  3.8240765475282390e-01 1.8281876243023351e-04 0.0000000000000000e+00  1.8708394412499511e-05 -1.1009224793568401e-05 0.0000000000000000e+00  3.8240662791151980e-01 9.8046119389981655e-05 0.0000000000000000e+00  3.8242165126660055e-01 1.4315300196111283e-04 0.0000000000000000e+00  6.5817277863887319e-05 -4.6635371200596902e-05 0.0000000000000000e+00  4.3332392974137915e-05 -3.2080846638648875e-05 0.0000000000000000e+00  3.8244779934848189e-01 2.1337768888318549e-05 0.0000000000000000e+00  2.5221662508667814e-05 -1.7440611890720237e-05 0.0000000000000000e+00  3.8241600237609075e-01 6.8194312076079799e-05 0.0000000000000000e+00  1.3268929028312974e-05 -5.2308504334566086e-06 0.0000000000000000e+00  1.9314094248894030e-05 -1.0273814127697967e-05 0.0000000000000000e+00  3.8241759178984119e-01 1.0532660328123081e-04 0.0000000000000000e+00  3.0526290543983233e-05 -2.1003168410134466e-05 0.0000000000000000e+00  3.8243015171701727e-01 5.6258341124602052e-05 0.0000000000000000e+00  1.6561997607750731e-05 -7.0550819251788688e-06 0.0000000000000000e+00  3.8243706221496837e-01 1.3648831829804627e-04 0.0000000000000000e+00  8.2275717033078753e-05 -6.5878474975760730e-05 0.0000000000000000e+00  4.6669795095556102e-05 -3.3761937258176856e-05 0.0000000000000000e+00  3.8245498560924368e-01 1.8131714510727585e-05 0.0000000000000000e+00  3.8235736211483212e-01 1.4725846494423098e-04 0.0000000000000000e+00  5.0856026565313048e-05 -3.6466014621861887e-05 0.0000000000000000e+00  2.5910782589904028e-05 -1.9457761102369592e-05 0.0000000000000000e+00  3.8241209010075866e-01 5.8632531347300438e-05 0.0000000000000000e+00  3.8238185392702545e-01 2.0393423873165867e-04 0.0000000000000000e+00  4.6976234064639143e-05 -3.5306069081483952e-05 0.0000000000000000e+00  3.8245147413469283e-01 1.2451373576282242e-05 0.0000000000000000e+00  1.5472983940379159e-05 -9.0065811748805424e-06 0.0000000000000000e+00  3.8239446268401350e-01 1.0671663892509897e-04 0.0000000000000000e+00  3.8243766357836328e-01 1.5722956486605319e-05 0.0000000000000000e+00  3.8243986020385901e-01 1.7070804910904863e-05 0.0000000000000000e+00  2.8415265291455238e-05 -1.7312991149743520e-05 0.0000000000000000e+00  3.8243675546273120e-01 7.3975680032373561e-05 0.0000000000000000e+00  3.8245622903791388e-01 4.3060892726592968e-06 0.0000000000000000e+00  5.7760810177594964e-05 -3.4123424930877701e-05 0.0000000000000000e+00  5.1922842693492381e-05 -3.7108789193557921e-05 0.0000000000000000e+00  3.3609902735687807e-05 -2.6635196916873264e-05 0.0000000000000000e+00  3.4247853111512327e-05 -2.6178527148854952e-05 0.0000000000000000e+00  3.8237626182376727e-01 1.6665322071613906e-04 0.0000000000000000e+00  3.8238722331481190e-01 1.7253509240375376e-04 0.0000000000000000e+00  3.8242457004753944e-01 3.3902285853216635e-05 0.0000000000000000e+00  3.8242872916563403e-01 3.6333382137179416e-05 0.0000000000000000e+00  3.8231906179512687e-01 2.5004656186133835e-04 0.0000000000000000e+00  3.8216894765071890e-01 2.0559797837078859e-04 0.0000000000000000e+00  4.2137964063890215e-05 -3.3200740534613157e-05 0.0000000000000000e+00  4.2233200552380570e-05 -3.2970504041164171e-05 0.0000000000000000e+00  2.0887059339371685e-06 -7.6556723403555703e-07 0.0000000000000000e+00  3.8245910398598887e-01 9.0601109610673706e-07 0.0000000000000000e+00  4.0833930658576361e-05 -3.1000773680818455e-05 0.0000000000000000e+00  6.7801159060482013e-05 -3.8283953214223637e-05 0.0000000000000000e+00  3.8244109255883935e-01 2.3178330768973322e-05 0.0000000000000000e+00  3.82439209444