<?xml version="1.0"?>
<VTKFile type="UnstructuredGrid"  version="0.1"  >
<UnstructuredGrid>
<Piece  NumberOfPoints="820" NumberOfCells="1464">
<Points>
<DataArray  type="Float64"  NumberOfComponents="3"  format="ascii">0 0.1 0  0 0 0  1 0 0  1 0.1 0  0.5 0 0  0.5 0.1 0  0.25 0 0  0.25 0.1 0  0.75 0.1 0  0.75 0 0  0.375 0.1 0  0.375 0 0  0.125 0 0  0.125 0.1 0  0.625 0 0  0.625 0.1 0  0.875 0.1 0  0.875 0 0  0.6875 0.1 0  0.6875 0 0  0.5625 0 0  0.5625 0.1 0  0.0625 0.1 0  0.0625 0 0  0.1875 0.1 0  0.1875 0 0  0.3125 0 0  0.3125 0.1 0  0.4375 0.1 0  0.4375 0 0  0.8125 0 0  0.8125 0.1 0  0.9375 0.1 0  0.9375 0 0  0.84375 0.05000000000000001 0  0.78125 0.05 0  0.34375 0.05000000000000001 0  0.28125 0.05 0  0.15625 0.05 0  0.21875 0.05000000000000001 0  0 0.05 0  0.09375 0.05000000000000001 0  0.40625 0.05 0  0.46875 0.05000000000000001 0  0.53125 0.05 0  0.59375 0.05000000000000001 0  0.65625 0.05 0  0.71875 0.05000000000000001 0  0.90625 0.05 0  1 0.05 0  0.046875 0.04453125000000001 0  0.953125 0.05546875 0  0.96875 0 0  0.03125 0.1 0  0.03125 0 0  0.96875 0.1 0  1 0.07500000000000001 0  0.875 0.06523437500000001 0  0.8715625 0.03261718750000001 0  0.84375 0 0  0.90625 0.1 0  0.625 0.06523437500000001 0  0.6215625 0.03261718750000001 0  0.59375 0 0  0.6875 0.034765625 0  0.6840625 0.0673828125 0  0.65625 0.1 0  0.71875 0 0  0.5625 0.06523437500000001 0  0.5590625 0.03261718750000001 0  0.53125 0 0  0.65625 0 0  0.59375 0.1 0  0.5 0.06523437500000001 0  0.4965625 0.03261718750000001 0  0.46875 0 0  0.53125 0.1 0  0.4375 0.06523437500000001 0  0.4340625 0.03261718750000001 0  0.40625 0 0  0.46875 0.1 0  0.375 0.06523437500000001 0  0.3715625 0.03261718750000001 0  0.34375 0 0  0.40625 0.1 0  0.09375 0 0  0.09375 0.1 0  0.125 0.06523437500000001 0  0.1215625 0.03261718750000001 0  0.1875 0.034765625 0  0.1840625 0.0673828125 0  0.15625 0.1 0  0.21875 0 0  0.15625 0 0  0.28125 0.1 0  0.3125 0.06523437500000001 0  0.3090625 0.03261718750000001 0  0.28125 0 0  0.25 0.034765625 0  0.2534375 0.0673828125 0  0.21875 0.1 0  0.34375 0.1 0  0.78125 0.1 0  0.8125 0.06523437500000001 0  0.8090625 0.03261718750000001 0  0.78125 0 0  0.75 0.034765625 0  0.7534375 0.0673828125 0  0.71875 0.1 0  0.90625 0 0  0.84375 0.1 0  0.9740776699029127 0.03143583131067961 0  0.921875 0.075 0  0 0.025 0  0.02592233009708738 0.06856416868932039 0  0.0725 0.028515625 0  0.921875 0.025 0  0.078125 0.07500000000000001 0  0.9484670937186905 0.0242372460741816 0  0.05153290628130947 0.07576275392581842 0  0.8963594872172794 0.02643561701079966 0  0.02229817708333334 0.0375 0  0.9777018229166666 0.06250000000000001 0  0.72590087890625 0.025 0  0.8345789124085022 0.025 0  0.22590087890625 0.025 0  0.3345789124085023 0.025 0  0.15996337890625 0.075 0  0.39909912109375 0.075 0  0.4595789124085023 0.025 0  0.52409912109375 0.075 0  0.5845789124085022 0.025 0  0.65996337890625 0.075 0  0.27753662109375 0.075 0  0.77753662109375 0.075 0  0 0.07500000000000001 0  1 0.025 0  0.85090087890625 0.07500000000000001 0  0.77409912109375 0.025 0  0.35090087890625 0.07500000000000001 0  0.27409912109375 0.025 0  0.3970789124085022 0.025 0  0.47590087890625 0.07500000000000001 0  0.5220789124085022 0.025 0  0.60090087890625 0.07500000000000001 0  0.66340087890625 0.025 0  0.16340087890625 0.025 0  0.2095789124085023 0.07500000000000001 0  0.7095789124085022 0.07500000000000001 0  0.0974991439537346 0.02496950333675565 0  0.1029665898617512 0.07685681883640554 0  0.8970334101382489 0.07685681883640554 0  0.7331321502083639 0.0805418246751822 0  0.2331321502083639 0.08054182467518221 0  0.04967773437499999 0.02050781250000001 0  0.9302821601941748 0.04763728762135922 0  0.9453125 0.07773437499999999 0  0.06981448887637284 0.05242311804773303 0  0.703125 0.0173828125 0  0.203125 0.0173828125 0  0.828125 0.08261718750000001 0  0.328125 0.08261718750000001 0  0.4213608787615672 0.08215505604972331 0  0.453125 0.08261718750000001 0  0.5463608787615671 0.08215505604972331 0  0.578125 0.08261718750000001 0  0.6405370048634059 0.0181271643224308 0  0.1405370048634059 0.0181271643224308 0  0.796875 0.1 0  0.296875 0.1 0  0.6389903131525874 0.08261718750000001 0  0.1389903131525873 0.08261718750000001 0  0.796875 0 0  0.296875 0 0  0.359375 0 0  0.421875 0 0  0.484375 0 0  0.546875 0 0  0.609375 0 0  0.859375 0 0  0.984375 0 0  0.015625 0 0  0.9808265015870887 0.08306437698386088 0  0.015625 0.1 0  0.140615310157384 0.03789815460447876 0  0.8258710430305984 0.04237660226422156 0  0.3258710430305984 0.04237660226422154 0  0.4508710430305984 0.04237660226422154 0  0.5758710430305984 0.04237660226422156 0  0.73925254007477 0.05238802290978471 0  0.23925254007477 0.05238802290978471 0  0.19824745992523 0.05238802290978471 0  0.3883710430305984 0.04237660226422155 0  0.5133710430305984 0.04237660226422155 0  0.69824745992523 0.05238802290978471 0  0.6406153101573839 0.03789815460447876 0  0.8875652355519991 0.04398459561477483 0  0.03011990291140283 0.01954869700666445 0  0.2976228417042103 0.07944206017604956 0  0.7976228417042103 0.07944206017604956 0  0.6048261925064409 0.0202852140350185 0  0.8548261925064409 0.0202852140350185 0  0.4173261925064409 0.02028521403501849 0  0.5423261925064409 0.02028521403501849 0  0.479826192506441 0.02028521403501848 0  0.354826192506441 0.02028521403501848 0  0.7612196085333947 0.08469269433495656 0  0.2612196085333947 0.08469269433495656 0  0.671875 0.1 0  0.171875 0.1 0  0.1138156987561534 0.01531102667280419 0  0.1439032206506398 0.06434174268079966 0  0.6439032206506399 0.06434174268079966 0  0.7102169938849521 0.03403655887996306 0  0.2102169938849521 0.03403655887996306 0  0.331272668838501 0.06407394409179688 0  0.8312726688385009 0.06407394409179688 0  0.456272668838501 0.06407394409179688 0  0.5812726688385009 0.06407394409179688 0  0.9626931005513372 0.08290734481438196 0  0.7935362330470901 0.01983307912641665 0  0.2935362330470901 0.01983307912641665 0  0.078125 0 0  0.4143262322415116 0.06583278773374907 0  0.5393262322415115 0.06583278773374907 0  0.6756954193768612 0.08284197013692297 0  0.1756954193768612 0.08284197013692297 0  0.1934564775596677 0.08246105735569852 0  0.6934564775596677 0.0824610573556985 0  0.7948904737904949 0.06168801049385652 0  0.2948904737904949 0.06168801049385652 0  0.42558837890625 0.05 0  0.55058837890625 0.05 0  0.185643310546875 0.0173828125 0  0.685643310546875 0.0173828125 0  0.6085613945093048 0.05928612183988766 0  0.4835613945093048 0.05928612183988766 0  0.3585613945093048 0.05928612183988766 0  0.8585613945093048 0.05928612183988766 0  0.2430157823768409 0.0173828125 0  0.743015782376841 0.0173828125 0  0.11308837890625 0.05 0  0.1710613945093048 0.04071387816011236 0  0.6710613945093048 0.04071387816011236 0  0.2664386054906952 0.04071387816011236 0  0.7664386054906952 0.04071387816011236 0  0.1200872144236349 0.08261718750000001 0  0.618015782376841 0.08261718750000001 0  0.4930157823768409 0.08261718750000001 0  0.3680157823768409 0.08261718750000001 0  0.868015782376841 0.08261718750000001 0  0.515625 0.1 0  0.390625 0.1 0  0.265625 0 0  0.765625 0 0  0.516365031953596 0.05946768293606444 0  0.3913650319535959 0.05946768293606444 0  0.8926135952226929 0.06033018746614476 0  0.171875 0 0  0.671875 0 0  0.890625 0 0  0.8808652108632187 0.0171078614816925 0  0.2274441083295474 0.06456313374723947 0  0.7274441083295474 0.06456313374723946 0  0.9350285939903868 0.06406852472525566 0  0.453125 0 0  0.4433265752246126 0.01710378970181546 0  0.328125 0 0  0.3183265752246126 0.01710378970181546 0  0.578125 0 0  0.5683265752246126 0.01710378970181545 0  0.828125 0 0  0.8183265752246126 0.01710378970181545 0  0.515625 0 0  0.5058265752246126 0.01710378970181545 0  0.390625 0 0  0.3808265752246126 0.01710378970181545 0  0.01564771141956889 0.08260299286276945 0  0.9843522885804311 0.01739700713723054 0  0.3551736619148977 0.03733645281383641 0  0.4801736619148977 0.03733645281383641 0  0.8551736619148977 0.03733645281383642 0  0.7687346279121444 0.06091681090943113 0  0.2687346279121444 0.06091681090943113 0  0.6687653720878556 0.06091681090943113 0  0.1687653720878556 0.06091681090943113 0  0.6051736619148977 0.03733645281383642 0  0.2924478939734164 0.03697522410746614 0  0.7924478939734163 0.03697522410746614 0  0.8719142286486647 0.04906985056606887 0  0.6274213820068905 0.04848945596065109 0  0.4983341418505795 0.04892020701904073 0  0.3733341418505795 0.04892020701904073 0  0.3108341418505795 0.04892020701904073 0  0.8108341418505794 0.04892020701904073 0  0.6242024164762008 0.01640567476785111 0  0.3848561971730207 0.08410836408489761 0  0.5098561971730207 0.08410836408489761 0  0.2598561971730207 0.01589163591510238 0  0.7598561971730207 0.01589163591510238 0  0.890625 0.1 0  0.9582054159658413 0.03874795528975266 0  0.03565822065430611 0.08308352918541601 0  0.9643417793456939 0.016916470814584 0  0 0.0625 0  0.0168287001921521 0.05388159890776699 0  0.0417945840341587 0.06125204471024735 0  0.9831712998078479 0.04611840109223304 0  0.5622607296296599 0.08116332765030569 0  0.4372607296296599 0.08116332765030566 0  0.046875 0.1 0  0.953125 0 0  0.415919189453125 0.03668247284720479 0  0.540919189453125 0.03668247284720479 0  0.0859375 0.01393925506164327 0  0.109375 0.1 0  0.1338555271916189 0.05216484236021472 0  0.953125 0.1 0  0.140625 0 0  0.640625 0 0  0.546875 0.1 0  0.421875 0.1 0  0.203125 0 0  0.703125 0 0  0.046875 0 0  0.234375 0.1 0  0.734375 0.1 0  0.078125 0.1 0  0.921875 0 0  0.921875 0.1 0  0.828125 0.1 0  0.328125 0.1 0  0.453125 0.1 0  0.578125 0.1 0  0.640625 0.1 0  0.140625 0.1 0  0.984375 0.1 0  0.765625 0.1 0  0.265625 0.1 0  0.109375 0 0  0.203125 0.1 0  0.703125 0.1 0  0.234375 0 0  0.734375 0 0  0.609375 0.1 0  0.484375 0.1 0  0.359375 0.1 0  0.859375 0.1 0  0.03162846341645094 0.04971906156616034 0  0.9677597279973049 0.05078312969016881 0  0.8125319459969864 0.08431483734279674 0  0.3125319459969864 0.08431483734279674 0  0.01533347852251798 0.02378565849770013
[...]
<PointData  Vectors="damage"> 
<DataArray  type="Float64"  Name="damage"  NumberOfComponents="3" format="ascii">0.0000000000000000e+00 0.0000000000000000e+00 0.0000000000000000e+00  0.0000000000000000e+00 0.0000000000000000e+00 0.0000000000000000e+00  1.2748727449265981e-01 0.0000000000000000e+00 0.0000000000000000e+00  1.2748727449265981e-01 0.0000000000000000e+00 0.0000000000000000e+00  6.3740714757373515e-02 1.9592139217033404e-03 0.0000000000000000e+00  6.3745951653096503e-02 -1.8764700383539080e-03 0.0000000000000000e+00  3.1782317864536398e-02 1.9605543232568178e-03 0.0000000000000000e+00  3.1776275921397805e-02 -1.8750294146890169e-03 0.0000000000000000e+00  9.5711395223195120e-02 -1.8954531901748737e-03 0.0000000000000000e+00  9.5703345795004890e-02 1.9401355826752721e-03 0.0000000000000000e+00  4.7761649080442968e-02 -1.8722480032851503e-03 0.0000000000000000e+00  4.7760996562942165e-02 1.9634377336356585e-03 0.0000000000000000e+00  1.5804879847715395e-02 1.9569913429607470e-03 0.0000000000000000e+00  1.5790248541537752e-02 -1.8964829231885164e-03 0.0000000000000000e+00  7.9721495175054863e-02 1.9505817040442119e-03 0.0000000000000000e+00  7.9729193584875152e-02 -1.8851034068251705e-03 0.0000000000000000e+00  1.1169239701442440e-01 -1.9141783607474008e-03 0.0000000000000000e+00  1.1168563478835519e-01 1.9398537970542321e-03 0.0000000000000000e+00  8.7720415982898772e-02 -1.8902437557586759e-03 0.0000000000000000e+00  8.7712274414318350e-02 1.9454340789684717e-03 0.0000000000000000e+00  7.1730971808581429e-02 1.9552830997559625e-03 0.0000000000000000e+00  7.1737704185710308e-02 -1.8804005818930762e-03 0.0000000000000000e+00  7.9008124618573112e-03 -1.8942096984886942e-03 0.0000000000000000e+00  7.9157767514242468e-03 1.9365630090021715e-03 0.0000000000000000e+00  2.3782598950057892e-02 -1.8802474298167857e-03 0.0000000000000000e+00  2.3792797439464313e-02 1.9559345952940787e-03 0.0000000000000000e+00  3.9771535733465584e-02 1.9630644391604966e-03 0.0000000000000000e+00  3.9769098801988312e-02 -1.8726137518885113e-03 0.0000000000000000e+00  5.5753928568629423e-02 -1.8736407267704010e-03 0.0000000000000000e+00  5.5750722900085044e-02 1.9620435490773675e-03 0.0000000000000000e+00  1.0369528638570918e-01 1.9353673343587628e-03 0.0000000000000000e+00  1.0370270306163908e-01 -1.9007480865965334e-03 0.0000000000000000e+00  1.1958042998574672e-01 -1.9096099310891451e-03 0.0000000000000000e+00  1.1957231885434527e-01 1.9234854102968399e-03 0.0000000000000000e+00  1.0769372644503089e-01 1.4895989403116657e-05 0.0000000000000000e+00  9.9702699295971128e-02 1.9738129068492960e-05 0.0000000000000000e+00  4.3765820024006911e-02 4.5840045044098193e-05 0.0000000000000000e+00  3.5774818386443620e-02 4.4506192871436545e-05 0.0000000000000000e+00  1.9792825464990404e-02 3.4838709409302712e-05 0.0000000000000000e+00  2.7783955895651753e-02 4.0890946203778805e-05 0.0000000000000000e+00  0.0000000000000000e+00 0.0000000000000000e+00 0.0000000000000000e+00  1.1776459381506723e-02 2.6298393301091962e-05 0.0000000000000000e+00  5.1756834751934322e-02 4.5250184969952206e-05 0.0000000000000000e+00  5.9747830440426239e-02 4.3068337385810514e-05 0.0000000000000000e+00  6.7738841374495568e-02 3.9612915418365452e-05 0.0000000000000000e+00  7.5729840655476680e-02 3.5224697825623519e-05 0.0000000000000000e+00  8.3720847189226497e-02 3.0228551692186664e-05 0.0000000000000000e+00  9.1711849097517451e-02 2.4955454766601063e-05 0.0000000000000000e+00  1.1571116299436671e-01 1.0538824595704625e-05 0.0000000000000000e+00  1.2748727449265981e-01 0.0000000000000000e+00 0.0000000000000000e+00  5.7045880416160596e-03 2.1269311104327060e-04 0.0000000000000000e+00  1.2179059447116612e-01 -1.8746042435299396e-04 0.0000000000000000e+00  1.2335770104626501e-01 1.6646681284130460e-03 0.0000000000000000e+00  4.1052918330430994e-03 -1.6249895043519748e-03 0.0000000000000000e+00  4.1465261844024388e-03 1.6558094435257158e-03 0.0000000000000000e+00  1.2336626944310186e-01 -1.6260890707193306e-03 0.0000000000000000e+00  1.2748727449265981e-01 0.0000000000000000e+00 0.0000000000000000e+00  1.1169302681956626e-01 -5.7702538050793083e-04 0.0000000000000000e+00  1.1125073455410413e-01 6.8508005692977949e-04 0.0000000000000000e+00  1.0769182104706120e-01 1.9350746622322987e-03 0.0000000000000000e+00  1.1566736391974199e-01 -1.9286793111113504e-03 0.0000000000000000e+00  7.9726497772244997e-02 -5.5156552645295107e-04 0.0000000000000000e+00  7.9284526417325557e-02 6.9980008665719139e-04 0.0000000000000000e+00  7.5726203990772498e-02 1.9530072457897270e-03 0.0000000000000000e+00  8.7715128008378579e-02 6.1194581113956765e-04 0.0000000000000000e+00  8.7278237528800720e-02 -6.3885384147277329e-04 0.0000000000000000e+00  8.3724838579272154e-02 -1.8876391467764718e-03 0.0000000000000000e+00  9.1707764905829381e-02 1.9427863329296196e-03 0.0000000000000000e+00  7.1735346698138164e-02 -5.4683337372894963e-04 0.0000000000000000e+00  7.1293694128776244e-02 7.0449465267911741e-04 0.0000000000000000e+00  6.7735816582370614e-02 1.9573651307124816e-03 0.0000000000000000e+00  8.3716850571766810e-02 1.9480429715176366e-03 0.0000000000000000e+00  7.5733482538684338e-02 -1.8826732513763460e-03 0.0000000000000000e+00  6.3744111759387032e-02 -5.4287534532930374e-04 0.0000000000000000e+00  6.3302957799043394e-02 7.0840103349579413e-04 0.0000000000000000e+00  5.9745691564291721e-02 1.9607791125528054e-03 0.0000000000000000e+00  6.7741855469548057e-02 -1.8783156719604103e-03 0.0000000000000000e+00  5.5752800471745557e-02 -5.4001522673217364e-04 0.0000000000000000e+00  5.5312306625290394e-02 7.1118644238789557e-04 0.0000000000000000e+00  5.1755837310184238e-02 1.9629391484163529e-03 0.0000000000000000e+00  5.9749976128978817e-02 -1.8748906873616816e-03 0.0000000000000000e+00  4.7761402145767566e-02 -5.3859543911057657e-04 0.0000000000000000e+00  4.7321755931000103e-02 7.1251990659014811e-04 0.0000000000000000e+00  4.3766242767985290e-02 1.9634795910131821e-03 0.0000000000000000e+00  5.1757814058759559e-02 -1.8727401153832660e-03 0.0000000000000000e+00  1.1830953177856296e-02 1.9637077600011339e-03 0.0000000000000000e+00  1.1814789077548736e-02 -1.9122810109763583e-03 0.0000000000000000e+00  1.5792357833738883e-02 -5.5912896151639449e-04 0.0000000000000000e+00  1.5357999880750777e-02 7.0356928252699098e-04 0.0000000000000000e+00  2.3790164926805035e-02 6.2255503016905487e-04 0.0000000000000000e+00  2.3347232110603446e-02 -6.2917630708145657e-04 0.0000000000000000e+00  1.9785221509476435e-02 -1.8855560417725041e-03 0.0000000000000000e+00  2.7787692399892872e-02 1.9584177335410986e-03 0.0000000000000000e+00  1.9797621538328362e-02 1.9543491728376346e-03 0.0000000000000000e+00  3.5772719988461474e-02 -1.8735409266948048e-03 0.0000000000000000e+00  3.9769928698781425e-02 -5.3893846047131536e-04 0.0000000000000000e+00  3.9331291731907261e-02 7.1206477397760411e-04 0.0000000000000000e+00  3.5776914457577878e-02 1.9621075483198494e-03 0.0000000000000000e+00  3.1780271553528847e-02 6.2729025985760144e-04 0.0000000000000000e+00  3.2217807321419781e-02 -6.2355727920646996e-04 0.0000000000000000e+00  2.7779596650425651e-02 -1.8771405242793203e-03 0.0000000000000000e+00  4.3765410521365330e-02 -1.8721817033182497e-03 0.0000000000000000e+00  9.9706904841830771e-02 -1.8979819639451823e-03 0.0000000000000000e+00  1.0369918584979247e-01 -5.6717764264703615e-04 0.0000000000000000e+00  1.0325733994036182e-01 6.8434017541345120e-04 0.0000000000000000e+00  9.9699102185415514e-02 1.9375375951504556e-03 0.0000000000000000e+00  9.5706122453681597e-02 6.0663135677778608e-04 0.0000000000000000e+00  9.6148211715697179e-02 -6.4467421925940547e-04 0.0000000000000000e+00  9.1715927809955425e-02 -1.8928661421122870e-03 0.0000000000000000e+00  1.1566151088089513e-01 1.9504030921768435e-03 0.0000000000000000e+00  1.0769882872401366e-01 -1.9050095256143869e-03 0.0000000000000000e+00  1.2442214675003828e-01 4.7074946717074844e-04 0.0000000000000000e+00  1.1769355412654078e-01 -9.7438773850858941e-04 0.0000000000000000e+00  0.0000000000000000e+00 0.0000000000000000e+00 0.0000000000000000e+00  3.0775233569769068e-03 -4.7555941597091761e-04 0.0000000000000000e+00  9.0644433934395207e-03 8.6569523439920489e-04 0.0000000000000000e+00  1.1769267362858279e-01 9.9413025377314093e-04 0.0000000000000000e+00  9.7879065430182769e-03 -9.5854446400702158e-04 0.0000000000000000e+00  1.2110679948249545e-01 9.7439151546247079e-04 0.0000000000000000e+00  6.3711668807740459e-03 -9.4591692550868931e-04 0.0000000000000000e+00  1.1442267315252398e-01 9.3129568476773997e-04 0.0000000000000000e+00  2.5895769647194529e-03 2.8934229571927556e-04 0.0000000000000000e+00  1.2490704305561182e-01 -2.8189379124199702e-04 0.0000000000000000e+00  9.2624120565290402e-02 9.8325500640491234e-04 0.0000000000000000e+00  1.0651940529377117e-01 9.7547542130019033e-04 0.0000000000000000e+00  2.8700039046396227e-02 1.0002128761200115e-03 0.0000000000000000e+00  4.2593588320546383e-02 1.0046436690264251e-03 0.0000000000000000e+00  2.0264686920351566e-02 -9.2523957549609556e-04 0.0000000000000000e+00  5.0842938451551842e-02 -9.1354589861797895e-04 0.0000000000000000e+00  5.8574279247296537e-02 1.0023688053750650e-03 0.0000000000000000e+00  6.6825994667911837e-02 -9.1887633570238874e-04 0.0000000000000000e+00  7.4555501460527890e-02 9.9482149975930936e-04 0.0000000000000000e+00  8.4197602831842161e-02 -9.2900747384659719e-04 0.0000000000000000e+00  3.5298910592989736e-02 -9.1461444997510178e-04 0.0000000000000000e+00  9.9229990047425304e-02 -9.3878380574032461e-04 0.0000000000000000e+00  0.0000000000000000e+00 0.0000000000000000e+00 0.0000000000000000e+00  1.2748727449265981e-01 0.0000000000000000e+00 0.0000000000000000e+00  1.0860958669906243e-01 -9.4721272426852754e-04 0.0000000000000000e+00  9.8786600841791639e-02 9.7916681446912589e-04 0.0000000000000000e+00  4.4679962518107005e-02 -9.1310031227358841e-04 0.0000000000000000e+00  3.4861711919570458e-02 1.0030572962891765e-03 0.0000000000000000e+00  5.0583868078786363e-02 1.0043286608322701e-03 0.0000000000000000e+00  6.0663220418662345e-02 -9.1621737043466264e-04 0.0000000000000000e+00  6.6564825029711797e-02 9.9908515057118251e-04 0.0000000000000000e+00  7.6645948588910093e-02 -9.2425532875012708e-04 0.0000000000000000e+00  8.4633145128892168e-02 9.8854759094801925e-04 0.0000000000000000e+00  2.0710279113103820e-02 9.9555835450433226e-04 0.0000000000000000e+00  2.6609091690041831e-02 -9.1875616560964770e-04 0.0000000000000000e+00  9.0541291419219100e-02 -9.3317913064293475e-04 0.0000000000000000e+00  1.2281473194779581e-02 1.0060107015645798e-03 0.0000000000000000e+00  1.2974153249535592e-02 -1.0204860392057191e-03 0.0000000000000000e+00  1.1450858565571612e-01 -1.0366751605415936e-03 0.0000000000000000e+00  9.3553155798464641e-02 -1.1477177641580480e-03 0.0000000000000000e+00  2.9620439424846681e-02 -1.1295553488086072e-03 0.0000000000000000e+00  6.1743324678566166e-03 1.1098580891787920e-03 0.0000000000000000e+00  1.1882551859415723e-01 1.0105908377012770e-04 0.0000000000000000e+00  1.2068795861325063e-01 -1.0459705021417336e-03 0.0000000000000000e+00  8.6768346335488970e-03 -7.3486403126769671e-05 0.0000000000000000e+00  8.9711458027791832e-02 1.2773661239221157e-03 0.0000000000000000e+00  2.5788989768863506e-02 1.2905308262099399e-03 0.0000000000000000e+00  1.0569854257052255e-01 -1.2357200387322531e-03 0.0000000000000000e+00  4.1767516805837346e-02 -1.2054782477641279e-03 0.0000000000000000e+00  5.3689646766455504e-02 -1.1885678580737435e-03 0.0000000000000000e+00  5.7751284262147269e-02 -1.2074004104677934e-03 0.0000000000000000e+00  6.9672882120373245e-02 -1.1947733732484060e-03 0.0000000000000000e+00  7.3734356091257766e-02 -1.2147282934981277e-03 0.0000000000000000e+00  8.1709362623368670e-02 1.2540514138036781e-03 0.0000000000000000e+00  1.7788470986265348e-02 1.2596592979763602e-03 0.0000000000000000e+00  1.0170473904293563e-01 -1.8992824167679877e-03 0.0000000000000000e+00  3.7770911806658279e-02 -1.8730162037425165e-03 0.0000000000000000e+00  8.1516624056511916e-02 -1.2194582515635652e-03 0.0000000000000000e+00  1.7581873847613311e-02 -1.2235947433610281e-03 0.0000000000000000e+00  1.0169712268315015e-01 1.9363384356831824e-03 0.0000000000000000e+00  3.7774217941016930e-02 1.9626624351625406e-03 0.0000000000000000e+00  4.5763610719475899e-02 1.9635234364787568e-03 0.0000000000000000e+00  5.3753268635076838e-02 1.9625400275966238e-03 0.0000000000000000e+00  6.1743194084281201e-02 1.9600375957822764e-03 0.0000000000000000e+00  6.9733383714356847e-02 1.9563511551747900e-03 0.0000000000000000e+00  7.7723839176502219e-02 1.9518105330951910e-03 0.0000000000000000e+00  1.0968963360151415e-01 1.9365270788816724e-03 0.0000000000000000e+00  1.2522205081363602e-01 1.1560077930513743e-03 0.0000000000000000e+00  2.2572520810418056e-03 1.2161177604433436e-03 0.0000000000000000e+00  1.2520275459039129e-01 -7.2816908545798799e-04 0.0000000000000000e+00  2.1902527361150914e-03 -1.1205612038134344e-03 0.0000000000000000e+00  1.7794667332338542e-02 4.9924076931620630e-04 0.0000000000000000e+00  1.0540696923111788e-01 3.0879430738318633e-04 0.0000000000000000e+00  4.1480029474792790e-02 3.3806802777269383e-04 0.0000000000000000e+00  5.7461620653050008e-02 3.3624283146345646e-04 0.0000000000000000e+00  7.3443381989210438e-02 3.2896412242775235e-04 0.0000000000000000e+00  9.4333399642198959e-02 -6.8370468935608400e-05 0.0000000000000000e+00  3.0405085646345854e-02 -4.9246731681930914e-05 0.0000000000000000e+00  2.5162501367252614e-02 -5.2440332307703801e-05 0.0000000000000000e+00  4.9470808036548852e-02 3.3800254951499585e-04 0.0000000000000000e+00  6.5452485941468408e-02 3.3311879934225773e-04 0.0000000000000000e+00  8.9090670291482696e-02 -6.4900999783436587e-05 0.0000000000000000e+00  8.1720920874519667e-02 4.9570313226645442e-04 0.0000000000000000e+00  1.1330508164495835e-01 2.4633355522321956e-04 0.0000000000000000e+00  3.6801405209837801e-03 9.3037619908738179e-04 0.0000000000000000e+00  3.7867196856938713e-02 -1.0843149832921969e-03 0.0000000000000000e+00  1.0179845370056433e-01 -1.1108023965266892e-03 0.0000000000000000e+00  7.7143811294491271e-02 1.1741208965893250e-03 0.0000000000000000e+00  1.0910797027614040e-01 1.1574475023617035e-03 0.0000000000000000e+00  5.3172283857577524e-02 1.1846872961419148e-03 0.0000000000000000e+00  6.9153144411497641e-02 1.1786315565331361e-03 0.0000000000000000e+00  6.1162635913755072e-02 1.1822628658653606e-03 0.0000000000000000e+00  4.5182090015660724e-02 1.1855676350726934e-03 0.0000000000000000e+00  9.7144617048713022e-02 -1.3092351980186644e-03 0.0000000000000000e+00  3.3211913071789390e-02 -1.2871855304561707e-03 0.0000000000000000e+00  8.5722635160147567e-02 -1.8889363126667355e-03 0.0000000000000000e+00  2.1783924199676834e-02 -1.8823988276364830e-03 0.0000000000000000e+00  1.4375310621307712e-02 1.3730663030432858e-03 0.0000000000000000e+00  1.8211862470706698e-02 -5.1913209028678386e-04 0.0000000000000000e+00  8.2143349133013438e-02 -5.1885982042553631e-04 0.0000000000000000e+00  9.0619567973687948e-02 6.3798133416975483e-04 0.0000000000000000e+00  2.6694351040326102e-02 6.5243175474292352e-04 0.0000000000000000e+00  4.2170297367314424e-02 -4.9411651569088264e-04 0.0000000000000000e+00  1.0609923136137468e-01 -5.2456264910850849e-04 0.0000000000000000e+00  5.8153057526409084e-02 -4.9622832433132019e-04 0.0000000000000000e+00  7.4135518081368715e-02 -5.0367803346863533e-04 0.0000000000000000e+00  1.2286467467496433e-01 -1.1080226639092973e-03 0.0000000000000000e+00  1.0127145163679190e-01 1.1757966435104129e-03 0.0000000000000000e+00  3.7346761105804357e-02 1.2019515627811621e-03 0.0000000000000000e+00  9.8616402878685464e-03 1.9601716105886666e-03 0.0000000000000000e+00  5.2789768149237727e-02 -5.6225455870120768e-04 0.0000000000000000e+00  6.8772399490462321e-02 -5.6820957544532395e-04 0.0000000000000000e+00  8.6209696626639604e-02 -1.2311191201333194e-03 0.0000000000000000e+00  2.2275261154458229e-02 -1.2234216070819300e-03 0.0000000000000000e+00  2.4546582869702509e-02 -1.2065474409669748e-03 0.0000000000000000e+00  8.8480543942194442e-02 -1.2180012222556171e-03 0.0000000000000000e+00  1.0144754935793834e-01 -4.2963936778168846e-04 0.0000000000000000e+00  3.7518419026972720e-02 -4.0335518075837636e-04 0.0000000000000000e+00  5.4229354052281221e-02 4.4728555622142780e-05 0.0000000000000000e+00  7.0211364644520574e-02 3.8338736927649645e-05 0.0000000000000000e+00  2.3554230617647304e-02 1.2891262962351196e-03 0.0000000000000000e+00  8.7476329579844303e-02 1.2788477542713974e-03 0.0000000000000000e+00  7.7624251400449470e-02 -3.2210412311585077e-04 0.0000000000000000e+00  6.1641987268326974e-02 -3.1383532672198930e-04 0.0000000000000000e+00  4.5659525038575961e-02 -3.1032560076031321e-04 0.0000000000000000e+00  1.0958879260076296e-01 -3.4405562859775795e-04 0.0000000000000000e+00  3.0888470233943539e-02 1.2935075101292535e-03 0.0000000000000000e+00  9.4811767213092937e-02 1.2739640596174287e-03 0.0000000000000000e+00  1.4265024785086086e-02 2.8958483968237522e-05 0.0000000000000000e+00  2.1687965817984833e-02 3.9292053650014439e-04 0.0000000000000000e+00  8.5613836014020755e-02 3.8517669859221005e-04 0.0000000000000000e+00  3.3881580730352183e-02 4.0003169560859174e-04 0.0000000000000000e+00  9.7808332274135629e-02 3.7710695050776092e-04 0.0000000000000000e+00  1.5165121223715846e-02 -1.2322970306478036e-03 0.0000000000000000e+00  7.8834830866089028e-02 -1.2177746949841302e-03 0.0000000000000000e+00  6.2851976498728854e-02 -1.2092810944842459e-03 0.0000000000000000e+00  4.6868431337356561e-02 -1.2053472824164980e-03 0.0000000000000000e+00  1.1079760482624967e-01 -1.2446676783220095e-03 0.0000000000000000e+00  6.5743909514927687e-02 -1.8773574274320443e-03 0.0000000000000000e+00  4.9759736202374234e-02 -1.8724357609171001e-03 0.0000000000000000e+00  3.3779618000937157e-02 1.9614109450184435e-03 0.0000000000000000e+00  9.7701191879773455e-02 1.9388197349346618e-03 0.0000000000000000e+00  6.5836227843404344e-02 -3.2262123899350661e-04 0.0000000000000000e+00  4.9853809480376154e-02 -3.1760945686858946e-04 0.0000000000000000e+00  1.1395236464475531e-01 -3.9141875255252451e-04 0.0000000000000000e+00  2.1795173536393070e-02 1.9548856556907161e-03 0.0000000000000000e+00  8.5714556006746309e-02 1.9467461483868467e-03 0.0000000000000000e+00  1.1367845509019933e-01 1.9445096911489871e-03 0.0000000000000000e+00  1.1243522397170327e-01 1.2855603691513862e-03 0.0000000000000000e+00  2.8894374871689294e-02 -5.1702478451473772e-04 0.0000000000000000e+00  9.2824610789670040e-02 -5.3436375328685341e-04 0.0000000000000000e+00  1.1942142209099313e-01 -5.4249758995046247e-04 0.0000000000000000e+00  5.7748203346005528e-02 1.9614447335470626e-03 0.0000000000000000e+00  5.6496191681315200e-02 1.3058655228993269e-03 0.0000000000000000e+00  4.1768887249229246e-02 1.9633218971539094e-03 0.0000000000000000e+00  4.0516007112141462e-02 1.3072501661153470e-03 0.0000000000000000e+00  7.3728581542101837e-02 1.9541601542277477e-03 0.0000000000000000e+00  7.2477074416956680e-02 1.2988661383627972e-03 0.0000000000000000e+00  1.0569353235085857e-01 1.9348560793752260e-03 0.0000000000000000e+00  1.0444104259451138e-01 1.2789255833124337e-03 0.0000000000000000e+00  6.5738260054849187e-02 1.9583114592829480e-03 0.0000000000000000e+00  6.4486545706295390e-02 1.3029012792943179e-03 0.0000000000000000e+00  4.9758412759725520e-02 1.9632252728501677e-03 0.0000000000000000e+00  4.8506011381090529e-02 1.3074260433063045e-03 0.0000000000000000e+00  1.8553855146882430e-03 -5.9861582445727387e-04 0.0000000000000000e+00  1.2565046003893657e-01 5.6096159875211225e-04 0.0000000000000000e+00  4.5226458193849475e-02 5.3158401460144710e-04 0.0000000000000000e+00  6.1207845006980455e-02 5.2824522249225779e-04 0.0000000000000000e+00  1.0915400774811002e-01 5.0192010723536522e-04 0.0000000000000000e+00  9.8103467332017413e-02 -3