<?xml version="1.0"?>
<VTKFile type="UnstructuredGrid"  version="0.1"  >
<UnstructuredGrid>
<Piece  NumberOfPoints="820" NumberOfCells="1464">
<Points>
<DataArray  type="Float64"  NumberOfComponents="3"  format="ascii">0 0.1 0  0 0 0  1 0 0  1 0.1 0  0.5 0 0  0.5 0.1 0  0.25 0 0  0.25 0.1 0  0.75 0.1 0  0.75 0 0  0.375 0.1 0  0.375 0 0  0.125 0 0  0.125 0.1 0  0.625 0 0  0.625 0.1 0  0.875 0.1 0  0.875 0 0  0.6875 0.1 0  0.6875 0 0  0.5625 0 0  0.5625 0.1 0  0.0625 0.1 0  0.0625 0 0  0.1875 0.1 0  0.1875 0 0  0.3125 0 0  0.3125 0.1 0  0.4375 0.1 0  0.4375 0 0  0.8125 0 0  0.8125 0.1 0  0.9375 0.1 0  0.9375 0 0  0.84375 0.05000000000000001 0  0.78125 0.05 0  0.34375 0.05000000000000001 0  0.28125 0.05 0  0.15625 0.05 0  0.21875 0.05000000000000001 0  0 0.05 0  0.09375 0.05000000000000001 0  0.40625 0.05 0  0.46875 0.05000000000000001 0  0.53125 0.05 0  0.59375 0.05000000000000001 0  0.65625 0.05 0  0.71875 0.05000000000000001 0  0.90625 0.05 0  1 0.05 0  0.046875 0.04453125000000001 0  0.953125 0.05546875 0  0.96875 0 0  0.03125 0.1 0  0.03125 0 0  0.96875 0.1 0  1 0.07500000000000001 0  0.875 0.06523437500000001 0  0.8715625 0.03261718750000001 0  0.84375 0 0  0.90625 0.1 0  0.625 0.06523437500000001 0  0.6215625 0.03261718750000001 0  0.59375 0 0  0.6875 0.034765625 0  0.6840625 0.0673828125 0  0.65625 0.1 0  0.71875 0 0  0.5625 0.06523437500000001 0  0.5590625 0.03261718750000001 0  0.53125 0 0  0.65625 0 0  0.59375 0.1 0  0.5 0.06523437500000001 0  0.4965625 0.03261718750000001 0  0.46875 0 0  0.53125 0.1 0  0.4375 0.06523437500000001 0  0.4340625 0.03261718750000001 0  0.40625 0 0  0.46875 0.1 0  0.375 0.06523437500000001 0  0.3715625 0.03261718750000001 0  0.34375 0 0  0.40625 0.1 0  0.09375 0 0  0.09375 0.1 0  0.125 0.06523437500000001 0  0.1215625 0.03261718750000001 0  0.1875 0.034765625 0  0.1840625 0.0673828125 0  0.15625 0.1 0  0.21875 0 0  0.15625 0 0  0.28125 0.1 0  0.3125 0.06523437500000001 0  0.3090625 0.03261718750000001 0  0.28125 0 0  0.25 0.034765625 0  0.2534375 0.0673828125 0  0.21875 0.1 0  0.34375 0.1 0  0.78125 0.1 0  0.8125 0.06523437500000001 0  0.8090625 0.03261718750000001 0  0.78125 0 0  0.75 0.034765625 0  0.7534375 0.0673828125 0  0.71875 0.1 0  0.90625 0 0  0.84375 0.1 0  0.9740776699029127 0.03143583131067961 0  0.921875 0.075 0  0 0.025 0  0.02592233009708738 0.06856416868932039 0  0.0725 0.028515625 0  0.921875 0.025 0  0.078125 0.07500000000000001 0  0.9484670937186905 0.0242372460741816 0  0.05153290628130947 0.07576275392581842 0  0.8963594872172794 0.02643561701079966 0  0.02229817708333334 0.0375 0  0.9777018229166666 0.06250000000000001 0  0.72590087890625 0.025 0  0.8345789124085022 0.025 0  0.22590087890625 0.025 0  0.3345789124085023 0.025 0  0.15996337890625 0.075 0  0.39909912109375 0.075 0  0.4595789124085023 0.025 0  0.52409912109375 0.075 0  0.5845789124085022 0.025 0  0.65996337890625 0.075 0  0.27753662109375 0.075 0  0.77753662109375 0.075 0  0 0.07500000000000001 0  1 0.025 0  0.85090087890625 0.07500000000000001 0  0.77409912109375 0.025 0  0.35090087890625 0.07500000000000001 0  0.27409912109375 0.025 0  0.3970789124085022 0.025 0  0.47590087890625 0.07500000000000001 0  0.5220789124085022 0.025 0  0.60090087890625 0.07500000000000001 0  0.66340087890625 0.025 0  0.16340087890625 0.025 0  0.2095789124085023 0.07500000000000001 0  0.7095789124085022 0.07500000000000001 0  0.0974991439537346 0.02496950333675565 0  0.1029665898617512 0.07685681883640554 0  0.8970334101382489 0.07685681883640554 0  0.7331321502083639 0.0805418246751822 0  0.2331321502083639 0.08054182467518221 0  0.04967773437499999 0.02050781250000001 0  0.9302821601941748 0.04763728762135922 0  0.9453125 0.07773437499999999 0  0.06981448887637284 0.05242311804773303 0  0.703125 0.0173828125 0  0.203125 0.0173828125 0  0.828125 0.08261718750000001 0  0.328125 0.08261718750000001 0  0.4213608787615672 0.08215505604972331 0  0.453125 0.08261718750000001 0  0.5463608787615671 0.08215505604972331 0  0.578125 0.08261718750000001 0  0.6405370048634059 0.0181271643224308 0  0.1405370048634059 0.0181271643224308 0  0.796875 0.1 0  0.296875 0.1 0  0.6389903131525874 0.08261718750000001 0  0.1389903131525873 0.08261718750000001 0  0.796875 0 0  0.296875 0 0  0.359375 0 0  0.421875 0 0  0.484375 0 0  0.546875 0 0  0.609375 0 0  0.859375 0 0  0.984375 0 0  0.015625 0 0  0.9808265015870887 0.08306437698386088 0  0.015625 0.1 0  0.140615310157384 0.03789815460447876 0  0.8258710430305984 0.04237660226422156 0  0.3258710430305984 0.04237660226422154 0  0.4508710430305984 0.04237660226422154 0  0.5758710430305984 0.04237660226422156 0  0.73925254007477 0.05238802290978471 0  0.23925254007477 0.05238802290978471 0  0.19824745992523 0.05238802290978471 0  0.3883710430305984 0.04237660226422155 0  0.5133710430305984 0.04237660226422155 0  0.69824745992523 0.05238802290978471 0  0.6406153101573839 0.03789815460447876 0  0.8875652355519991 0.04398459561477483 0  0.03011990291140283 0.01954869700666445 0  0.2976228417042103 0.07944206017604956 0  0.7976228417042103 0.07944206017604956 0  0.6048261925064409 0.0202852140350185 0  0.8548261925064409 0.0202852140350185 0  0.4173261925064409 0.02028521403501849 0  0.5423261925064409 0.02028521403501849 0  0.479826192506441 0.02028521403501848 0  0.354826192506441 0.02028521403501848 0  0.7612196085333947 0.08469269433495656 0  0.2612196085333947 0.08469269433495656 0  0.671875 0.1 0  0.171875 0.1 0  0.1138156987561534 0.01531102667280419 0  0.1439032206506398 0.06434174268079966 0  0.6439032206506399 0.06434174268079966 0  0.7102169938849521 0.03403655887996306 0  0.2102169938849521 0.03403655887996306 0  0.331272668838501 0.06407394409179688 0  0.8312726688385009 0.06407394409179688 0  0.456272668838501 0.06407394409179688 0  0.5812726688385009 0.06407394409179688 0  0.9626931005513372 0.08290734481438196 0  0.7935362330470901 0.01983307912641665 0  0.2935362330470901 0.01983307912641665 0  0.078125 0 0  0.4143262322415116 0.06583278773374907 0  0.5393262322415115 0.06583278773374907 0  0.6756954193768612 0.08284197013692297 0  0.1756954193768612 0.08284197013692297 0  0.1934564775596677 0.08246105735569852 0  0.6934564775596677 0.0824610573556985 0  0.7948904737904949 0.06168801049385652 0  0.2948904737904949 0.06168801049385652 0  0.42558837890625 0.05 0  0.55058837890625 0.05 0  0.185643310546875 0.0173828125 0  0.685643310546875 0.0173828125 0  0.6085613945093048 0.05928612183988766 0  0.4835613945093048 0.05928612183988766 0  0.3585613945093048 0.05928612183988766 0  0.8585613945093048 0.05928612183988766 0  0.2430157823768409 0.0173828125 0  0.743015782376841 0.0173828125 0  0.11308837890625 0.05 0  0.1710613945093048 0.04071387816011236 0  0.6710613945093048 0.04071387816011236 0  0.2664386054906952 0.04071387816011236 0  0.7664386054906952 0.04071387816011236 0  0.1200872144236349 0.08261718750000001 0  0.618015782376841 0.08261718750000001 0  0.4930157823768409 0.08261718750000001 0  0.3680157823768409 0.08261718750000001 0  0.868015782376841 0.08261718750000001 0  0.515625 0.1 0  0.390625 0.1 0  0.265625 0 0  0.765625 0 0  0.516365031953596 0.05946768293606444 0  0.3913650319535959 0.05946768293606444 0  0.8926135952226929 0.06033018746614476 0  0.171875 0 0  0.671875 0 0  0.890625 0 0  0.8808652108632187 0.0171078614816925 0  0.2274441083295474 0.06456313374723947 0  0.7274441083295474 0.06456313374723946 0  0.9350285939903868 0.06406852472525566 0  0.453125 0 0  0.4433265752246126 0.01710378970181546 0  0.328125 0 0  0.3183265752246126 0.01710378970181546 0  0.578125 0 0  0.5683265752246126 0.01710378970181545 0  0.828125 0 0  0.8183265752246126 0.01710378970181545 0  0.515625 0 0  0.5058265752246126 0.01710378970181545 0  0.390625 0 0  0.3808265752246126 0.01710378970181545 0  0.01564771141956889 0.08260299286276945 0  0.9843522885804311 0.01739700713723054 0  0.3551736619148977 0.03733645281383641 0  0.4801736619148977 0.03733645281383641 0  0.8551736619148977 0.03733645281383642 0  0.7687346279121444 0.06091681090943113 0  0.2687346279121444 0.06091681090943113 0  0.6687653720878556 0.06091681090943113 0  0.1687653720878556 0.06091681090943113 0  0.6051736619148977 0.03733645281383642 0  0.2924478939734164 0.03697522410746614 0  0.7924478939734163 0.03697522410746614 0  0.8719142286486647 0.04906985056606887 0  0.6274213820068905 0.04848945596065109 0  0.4983341418505795 0.04892020701904073 0  0.3733341418505795 0.04892020701904073 0  0.3108341418505795 0.04892020701904073 0  0.8108341418505794 0.04892020701904073 0  0.6242024164762008 0.01640567476785111 0  0.3848561971730207 0.08410836408489761 0  0.5098561971730207 0.08410836408489761 0  0.2598561971730207 0.01589163591510238 0  0.7598561971730207 0.01589163591510238 0  0.890625 0.1 0  0.9582054159658413 0.03874795528975266 0  0.03565822065430611 0.08308352918541601 0  0.9643417793456939 0.016916470814584 0  0 0.0625 0  0.0168287001921521 0.05388159890776699 0  0.0417945840341587 0.06125204471024735 0  0.9831712998078479 0.04611840109223304 0  0.5622607296296599 0.08116332765030569 0  0.4372607296296599 0.08116332765030566 0  0.046875 0.1 0  0.953125 0 0  0.415919189453125 0.03668247284720479 0  0.540919189453125 0.03668247284720479 0  0.0859375 0.01393925506164327 0  0.109375 0.1 0  0.1338555271916189 0.05216484236021472 0  0.953125 0.1 0  0.140625 0 0  0.640625 0 0  0.546875 0.1 0  0.421875 0.1 0  0.203125 0 0  0.703125 0 0  0.046875 0 0  0.234375 0.1 0  0.734375 0.1 0  0.078125 0.1 0  0.921875 0 0  0.921875 0.1 0  0.828125 0.1 0  0.328125 0.1 0  0.453125 0.1 0  0.578125 0.1 0  0.640625 0.1 0  0.140625 0.1 0  0.984375 0.1 0  0.765625 0.1 0  0.265625 0.1 0  0.109375 0 0  0.203125 0.1 0  0.703125 0.1 0  0.234375 0 0  0.734375 0 0  0.609375 0.1 0  0.484375 0.1 0  0.359375 0.1 0  0.859375 0.1 0  0.03162846341645094 0.04971906156616034 0  0.9677597279973049 0.05078312969016881 0  0.8125319459969864 0.08431483734279674 0  0.3125319459969864 0.08431483734279674 0  0.01533347852251798 0.02378565849770013
[...]
<PointData  Vectors="damage"> 
<DataArray  type="Float64"  Name="damage"  NumberOfComponents="3" format="ascii">0.0000000000000000e+00 0.0000000000000000e+00 0.0000000000000000e+00  0.0000000000000000e+00 0.0000000000000000e+00 0.0000000000000000e+00  8.4991516328439876e-02 0.0000000000000000e+00 0.0000000000000000e+00  8.4991516328439876e-02 0.0000000000000000e+00 0.0000000000000000e+00  4.2493809838248985e-02 1.3061426144688763e-03 0.0000000000000000e+00  4.2497301102064303e-02 -1.2509800255692857e-03 0.0000000000000000e+00  2.1188211909690901e-02 1.3070362155045456e-03 0.0000000000000000e+00  2.1184183947598516e-02 -1.2500196097926756e-03 0.0000000000000000e+00  6.3807596815463385e-02 -1.2636354601166077e-03 0.0000000000000000e+00  6.3802230530003265e-02 1.2934237217835001e-03 0.0000000000000000e+00  3.1841099386961953e-02 -1.2481653355234372e-03 0.0000000000000000e+00  3.1840664375294737e-02 1.3089584890904342e-03 0.0000000000000000e+00  1.0536586565143580e-02 1.3046608953071648e-03 0.0000000000000000e+00  1.0526832361025154e-02 -1.2643219487923397e-03 0.0000000000000000e+00  5.3147663450036541e-02 1.3003878026961384e-03 0.0000000000000000e+00  5.3152795723250060e-02 -1.2567356045501117e-03 0.0000000000000000e+00  7.4461598009616270e-02 -1.2761189071649338e-03 0.0000000000000000e+00  7.4457089858903480e-02 1.2932358647028280e-03 0.0000000000000000e+00  5.8480277321932506e-02 -1.2601625038391230e-03 0.0000000000000000e+00  5.8474849609545514e-02 1.2969560526456562e-03 0.0000000000000000e+00  4.7820647872387587e-02 1.3035220665039624e-03 0.0000000000000000e+00  4.7825136123806816e-02 -1.2536003879287409e-03 0.0000000000000000e+00  5.2672083079048681e-03 -1.2628064656591267e-03 0.0000000000000000e+00  5.2771845009494918e-03 1.2910420060014483e-03 0.0000000000000000e+00  1.5855065966705245e-02 -1.2534982865445184e-03 0.0000000000000000e+00  1.5861864959642858e-02 1.3039563968627202e-03 0.0000000000000000e+00  2.6514357155643688e-02 1.3087096261069952e-03 0.0000000000000000e+00  2.6512732534658842e-02 -1.2484091679256762e-03 0.0000000000000000e+00  3.7169285712419599e-02 -1.2490938178469487e-03 0.0000000000000000e+00  3.7167148600056661e-02 1.3080290327182264e-03 0.0000000000000000e+00  6.9130190923806151e-02 1.2902448895725043e-03 0.0000000000000000e+00  6.9135135374426032e-02 -1.2671653910643615e-03 0.0000000000000000e+00  7.9720286657164477e-02 -1.2730732873927671e-03 0.0000000000000000e+00  7.9714879236230191e-02 1.2823236068645791e-03 0.0000000000000000e+00  7.1795817630020589e-02 9.9306596020843910e-06 0.0000000000000000e+00  6.6468466197314058e-02 1.3158752712318744e-05 0.0000000000000000e+00  2.9177213349337913e-02 3.0560030029394274e-05 0.0000000000000000e+00  2.3849878924295721e-02 2.9670795247621812e-05 0.0000000000000000e+00  1.3195216976660254e-02 2.3225806272871803e-05 0.0000000000000000e+00  1.8522637263767811e-02 2.7260630802521139e-05 0.0000000000000000e+00  0.0000000000000000e+00 0.0000000000000000e+00 0.0000000000000000e+00  7.8509729210044735e-03 1.7532262200730194e-05 0.0000000000000000e+00  3.4504556501289523e-02 3.0166789979958384e-05 0.0000000000000000e+00  3.9831886960284127e-02 2.8712224923857072e-05 0.0000000000000000e+00  4.5159227582996987e-02 2.6408610278891700e-05 0.0000000000000000e+00  5.0486560436984414e-02 2.3483131883745182e-05 0.0000000000000000e+00  5.5813898126150951e-02 2.0152367794791536e-05 0.0000000000000000e+00  6.1141232731678270e-02 1.6636969844381340e-05 0.0000000000000000e+00  7.7140775329577804e-02 7.0258830638108104e-06 0.0000000000000000e+00  8.4991516328439876e-02 0.0000000000000000e+00 0.0000000000000000e+00  3.8030586944107015e-03 1.4179540736218091e-04 0.0000000000000000e+00  8.1193729647444104e-02 -1.2497361623532417e-04 0.0000000000000000e+00  8.2238467364176629e-02 1.1097787522753684e-03 0.0000000000000000e+00  2.7368612220287298e-03 -1.0833263362346479e-03 0.0000000000000000e+00  2.7643507896016229e-03 1.1038729623504765e-03 0.0000000000000000e+00  8.2244179628734579e-02 -1.0840593804795524e-03 0.0000000000000000e+00  8.4991516328439889e-02 0.0000000000000000e+00 0.0000000000000000e+00  7.4462017879710851e-02 -3.8468358700527910e-04 0.0000000000000000e+00  7.4167156369402784e-02 4.5672003795319119e-04 0.0000000000000000e+00  7.1794547364707514e-02 1.2900497748215428e-03 0.0000000000000000e+00  7.7111575946494676e-02 -1.2857862074075546e-03 0.0000000000000000e+00  5.3150998514829947e-02 -3.6771035096862974e-04 0.0000000000000000e+00  5.2856350944883668e-02 4.6653339110479307e-04 0.0000000000000000e+00  5.0484135993848302e-02 1.3020048305264716e-03 0.0000000000000000e+00  5.8476752005585698e-02 4.0796387409304492e-04 0.0000000000000000e+00  5.8185491685867084e-02 -4.2590256098185404e-04 0.0000000000000000e+00  5.5816559052848068e-02 -1.2584260978509777e-03 0.0000000000000000e+00  6.1138509937219560e-02 1.2951908886197330e-03 0.0000000000000000e+00  4.7823564465425399e-02 -3.6455558248597603e-04 0.0000000000000000e+00  4.7529129419184121e-02 4.6966310178607224e-04 0.0000000000000000e+00  4.5157211054913701e-02 1.3049100871416314e-03 0.0000000000000000e+00  5.5811233714511160e-02 1.2986953143450848e-03 0.0000000000000000e+00  5.0488988359122855e-02 -1.2551155009175726e-03 0.0000000000000000e+00  4.2496074506257968e-02 -3.6191689688621731e-04 0.0000000000000000e+00  4.2201971866028878e-02 4.7226735566384338e-04 0.0000000000000000e+00  3.9830461042861122e-02 1.3071860750351824e-03 0.0000000000000000e+00  4.5161236979698649e-02 -1.2522104479736227e-03 0.0000000000000000e+00  3.7168533647830349e-02 -3.6001015115480120e-04 0.0000000000000000e+00  3.6874871083526918e-02 4.7412429492524468e-04 0.0000000000000000e+00  3.4503891540122789e-02 1.3086260989442250e-03 0.0000000000000000e+00  3.9833317419319184e-02 -1.2499271249078014e-03 0.0000000000000000e+00  3.1840934763845023e-02 -3.5906362607372055e-04 0.0000000000000000e+00  3.1547837287333361e-02 4.7501327106009677e-04 0.0000000000000000e+00  2.9177495178656827e-02 1.3089863940087846e-03 0.0000000000000000e+00  3.4505209372506361e-02 -1.2484934102555206e-03 0.0000000000000000e+00  7.8873021185708568e-03 1.3091385066674238e-03 0.0000000000000000e+00  7.8765260516991467e-03 -1.2748540073175693e-03 0.0000000000000000e+00  1.0528238555825912e-02 -3.7275264101092621e-04 0.0000000000000000e+00  1.0238666587167176e-02 4.6904618835132871e-04 0.0000000000000000e+00  1.5860109951203332e-02 4.1503668677937201e-04 0.0000000000000000e+00  1.5564821407068944e-02 -4.1945087138763325e-04 0.0000000000000000e+00  1.3190147672984279e-02 -1.2570373611816648e-03 0.0000000000000000e+00  1.8525128266595223e-02 1.3056118223607328e-03 0.0000000000000000e+00  1.3198414358885562e-02 1.3028994485584239e-03 0.0000000000000000e+00  2.3848479992307627e-02 -1.2490272844632049e-03 0.0000000000000000e+00  2.6513285799187589e-02 -3.5929230698088027e-04 0.0000000000000000e+00  2.6220861154604810e-02 4.7470984931840139e-04 0.0000000000000000e+00  2.3851276305051884e-02 1.3080716988798950e-03 0.0000000000000000e+00  2.1186847702352535e-02 4.1819350657173381e-04 0.0000000000000000e+00  2.1478538214279828e-02 -4.1570485280431190e-04 0.0000000000000000e+00  1.8519731100283744e-02 -1.2514270161862078e-03 0.0000000000000000e+00  2.9176940347576865e-02 -1.2481211355455015e-03 0.0000000000000000e+00  6.6471269894553806e-02 -1.2653213092968078e-03 0.0000000000000000e+00  6.9132790566528296e-02 -3.7811842843136063e-04 0.0000000000000000e+00  6.8838226626907875e-02 4.5622678360896749e-04 0.0000000000000000e+00  6.6466068123610361e-02 1.2916917301002996e-03 0.0000000000000000e+00  6.3804081635787713e-02 4.0442090451850643e-04 0.0000000000000000e+00  6.4098807810464745e-02 -4.2978281283961552e-04 0.0000000000000000e+00  6.1143951873303605e-02 -1.2619107614082077e-03 0.0000000000000000e+00  7.7107673920596767e-02 1.3002687281178937e-03 0.0000000000000000e+00  7.1799219149342425e-02 -1.2700063504095928e-03 0.0000000000000000e+00  8.2948097833358839e-02 3.1383297811383190e-04 0.0000000000000000e+00  7.8462369417693856e-02 -6.4959182567238987e-04 0.0000000000000000e+00  0.0000000000000000e+00 0.0000000000000000e+00 0.0000000000000000e+00  2.0516822379846021e-03 -3.1703961064727751e-04 0.0000000000000000e+00  6.0429622622930083e-03 5.7713015626613753e-04 0.0000000000000000e+00  7.8461782419055187e-02 6.6275350251543917e-04 0.0000000000000000e+00  6.5252710286788449e-03 -6.3902964267134545e-04 0.0000000000000000e+00  8.0737866321663646e-02 6.4959434364166046e-04 0.0000000000000000e+00  4.2474445871826918e-03 -6.3061128367245792e-04 0.0000000000000000e+00  7.6281782101682627e-02 6.2086378984516836e-04 0.0000000000000000e+00  1.7263846431462995e-03 1.9289486381285031e-04 0.0000000000000000e+00  8.3271362037074553e-02 -1.8792919416132049e-04 0.0000000000000000e+00  6.1749413710193594e-02 6.5550333760325643e-04 0.0000000000000000e+00  7.1012936862514128e-02 6.5031694753346604e-04 0.0000000000000000e+00  1.9133359364264128e-02 6.6680858408000871e-04 0.0000000000000000e+00  2.8395725547030893e-02 6.6976244601761462e-04 0.0000000000000000e+00  1.3509791280234364e-02 -6.1682638366405908e-04 0.0000000000000000e+00  3.3895292301034531e-02 -6.0903059907865939e-04 0.0000000000000000e+00  3.9049519498197661e-02 6.6824587025002301e-04 0.0000000000000000e+00  4.4550663111941176e-02 -6.1258422380161093e-04 0.0000000000000000e+00  4.9703667640351876e-02 6.6321433317286839e-04 0.0000000000000000e+00  5.6131735221228073e-02 -6.1933831589773146e-04 0.0000000000000000e+00  2.3532607061993137e-02 -6.0974296665007089e-04 0.0000000000000000e+00  6.6153326698283527e-02 -6.2585587049356149e-04 0.0000000000000000e+00  0.0000000000000000e+00 0.0000000000000000e+00 0.0000000000000000e+00  8.4991516328439876e-02 0.0000000000000000e+00 0.0000000000000000e+00  7.2406391132708262e-02 -6.3147514951235014e-04 0.0000000000000000e+00  6.5857733894527745e-02 6.5277787631273841e-04 0.0000000000000000e+00  2.9786641678737968e-02 -6.0873354151572915e-04 0.0000000000000000e+00  2.3241141279713610e-02 6.6870486419278233e-04 0.0000000000000000e+00  3.3722578719190884e-02 6.6955244055483883e-04 0.0000000000000000e+00  4.0442146945774846e-02 -6.1081158028979230e-04 0.0000000000000000e+00  4.4376550019807837e-02 6.6605676704743798e-04 0.0000000000000000e+00  5.1097299059273384e-02 -6.1617021916675373e-04 0.0000000000000000e+00  5.6422096752594735e-02 6.5903172729867834e-04 0.0000000000000000e+00  1.3806852742069194e-02 6.6370556966955773e-04 0.0000000000000000e+00  1.7739394460027869e-02 -6.1250411040642862e-04 0.0000000000000000e+00  6.0360860946146032e-02 -6.2211942042863751e-04 0.0000000000000000e+00  8.1876487965197135e-03 6.7067380104305534e-04 0.0000000000000000e+00  8.6494354996903850e-03 -6.8032402613714339e-04 0.0000000000000000e+00  7.6339057103810740e-02 -6.9111677369438924e-04 0.0000000000000000e+00  6.2368770532309686e-02 -7.6514517610538262e-04 0.0000000000000000e+00  1.9746959616564429e-02 -7.5303689920573429e-04 0.0000000000000000e+00  4.1162216452377397e-03 7.3990539278586146e-04 0.0000000000000000e+00  7.9217012396104819e-02 6.7372722513428079e-05 0.0000000000000000e+00  8.0458639075500424e-02 -6.9731366809448790e-04 0.0000000000000000e+00  5.7845564223659241e-03 -4.8990935417845108e-05 0.0000000000000000e+00  5.9807638685194550e-02 8.5157741594806880e-04 0.0000000000000000e+00  1.7192659845908984e-02 8.6035388413996231e-04 0.0000000000000000e+00  7.0465695047015026e-02 -8.2381335915483473e-04 0.0000000000000000e+00  2.7845011203891528e-02 -8.0365216517608274e-04 0.0000000000000000e+00  3.5793097844303644e-02 -7.9237857204917728e-04 0.0000000000000000e+00  3.8500856174764828e-02 -8.0493360697854151e-04 0.0000000000000000e+00  4.6448588080248751e-02 -7.9651558216562173e-04 0.0000000000000000e+00  4.9156237394171805e-02 -8.0981886233209431e-04 0.0000000000000000e+00  5.4472908415579072e-02 8.3603427586911687e-04 0.0000000000000000e+00  1.1858980657510218e-02 8.3977286531757294e-04 0.0000000000000000e+00  6.7803159361957049e-02 -1.2661882778453395e-03 0.0000000000000000e+00  2.5180607871105484e-02 -1.2486774691616790e-03 0.0000000000000000e+00  5.4344416037674578e-02 -8.1297216770904123e-04 0.0000000000000000e+00  1.1721249231742196e-02 -8.1572982890734810e-04 0.0000000000000000e+00  6.7798081788766770e-02 1.2908922904554423e-03 0.0000000000000000e+00  2.5182811960677925e-02 1.3084416234416896e-03 0.0000000000000000e+00  3.0509073812983886e-02 1.3090156243191647e-03 0.0000000000000000e+00  3.5835512423384522e-02 1.3083600183977362e-03 0.0000000000000000e+00  4.1162129389520782e-02 1.3066917305214981e-03 0.0000000000000000e+00  4.6488922476237871e-02 1.3042341034498405e-03 0.0000000000000000e+00  5.1815892784334773e-02 1.3012070220634600e-03 0.0000000000000000e+00  7.3126422401009472e-02 1.2910180525877873e-03 0.0000000000000000e+00  8.3481367209090662e-02 7.7067186203424304e-04 0.0000000000000000e+00  1.5048347206945355e-03 8.1074517362889477e-04 0.0000000000000000e+00  8.3468503060260879e-02 -4.8544605697198068e-04 0.0000000000000000e+00  1.4601684907433925e-03 -7.4704080254228830e-04 0.0000000000000000e+00  1.1863111554892350e-02 3.3282717954414025e-04 0.0000000000000000e+00  7.0271312820745252e-02 2.0586287158879090e-04 0.0000000000000000e+00  2.7653352983195167e-02 2.2537868518179564e-04 0.0000000000000000e+00  3.8307747102033322e-02 2.2416188764228762e-04 0.0000000000000000e+00  4.8962254659473597e-02 2.1930941495182789e-04 0.0000000000000000e+00  6.2888933094799260e-02 -4.5580312623755937e-05 0.0000000000000000e+00  2.0270057097563882e-02 -3.2831154454621278e-05 0.0000000000000000e+00  1.6775000911501716e-02 -3.4960221538464471e-05 0.0000000000000000e+00  3.2980538691032547e-02 2.2533503300998991e-04 0.0000000000000000e+00  4.3634990627645545e-02 2.2207919956148816e-04 0.0000000000000000e+00  5.9393780194321746e-02 -4.3267333188963681e-05 0.0000000000000000e+00  5.4480613916346392e-02 3.3046875484430739e-04 0.0000000000000000e+00  7.5536721096638892e-02 1.6422237014882045e-04 0.0000000000000000e+00  2.4534270139891846e-03 6.2025079939158757e-04 0.0000000000000000e+00  2.5244797904625776e-02 -7.2287665552813417e-04 0.0000000000000000e+00  6.7865635800376203e-02 -7.4053493101780023e-04 0.0000000000000000e+00  5.1429207529660827e-02 7.8274726439288343e-04 0.0000000000000000e+00  7.2738646850760300e-02 7.7163166824114639e-04 0.0000000000000000e+00  3.5448189238384983e-02 7.8979153076126597e-04 0.0000000000000000e+00  4.6102096274331747e-02 7.8575437102207781e-04 0.0000000000000000e+00  4.0775090609170020e-02 7.8817524391021875e-04 0.0000000000000000e+00  3.0121393343773794e-02 7.9037842338179436e-04 0.0000000000000000e+00  6.4763078032475316e-02 -8.7282346534579966e-04 0.0000000000000000e+00  2.2141275381192909e-02 -8.5812368697078302e-04 0.0000000000000000e+00  5.7148423440098364e-02 -1.2592908751111582e-03 0.0000000000000000e+00  1.4522616133117876e-02 -1.2549325517576485e-03 0.0000000000000000e+00  9.5835404142051318e-03 9.1537753536219228e-04 0.0000000000000000e+00  1.2141241647137787e-02 -3.4608806019118449e-04 0.0000000000000000e+00  5.4762232755342262e-02 -3.4590654695035593e-04 0.0000000000000000e+00  6.0413045315791974e-02 4.2532088944649478e-04 0.0000000000000000e+00  1.7796234026884045e-02 4.3495450316195181e-04 0.0000000000000000e+00  2.8113531578209585e-02 -3.2941101046059002e-04 0.0000000000000000e+00  7.0732820907583122e-02 -3.4970843273900772e-04 0.0000000000000000e+00  3.8768705017606021e-02 -3.3081888288756490e-04 0.0000000000000000e+00  4.9423678720912440e-02 -3.3578535564575792e-04 0.0000000000000000e+00  8.1909783116642890e-02 -7.3868177593953326e-04 0.0000000000000000e+00  6.7514301091194606e-02 7.8386442900693534e-04 0.0000000000000000e+00  2.4897840737202880e-02 8.0130104185410550e-04 0.0000000000000000e+00  6.5744268585790251e-03 1.3067810737257787e-03 0.0000000000000000e+00  3.5193178766158462e-02 -3.7483637246748402e-04 0.0000000000000000e+00  4.5848266326974835e-02 -3.7880638363023319e-04 0.0000000000000000e+00  5.7473131084426379e-02 -8.2074608008887739e-04 0.0000000000000000e+00  1.4850174102972133e-02 -8.1561440472128057e-04 0.0000000000000000e+00  1.6364388579801655e-02 -8.0436496064464555e-04 0.0000000000000000e+00  5.8987029294796274e-02 -8.1200081483708637e-04 0.0000000000000000e+00  6.7631699571958873e-02 -2.8642624518780392e-04 0.0000000000000000e+00  2.5012279351315121e-02 -2.6890345383892068e-04 0.0000000000000000e+00  3.6152902701520780e-02 2.9819037081413346e-05 0.0000000000000000e+00  4.6807576429680336e-02 2.5559157951755703e-05 0.0000000000000000e+00  1.5702820411764854e-02 8.5941753082341486e-04 0.0000000000000000e+00  5.8317553053229491e-02 8.5256516951426288e-04 0.0000000000000000e+00  5.1749500933632939e-02 -2.1473608207723668e-04 0.0000000000000000e+00  4.1094658178884608e-02 -2.0922355114800945e-04 0.0000000000000000e+00  3.0439683359050611e-02 -2.0688373384021149e-04 0.0000000000000000e+00  7.3059195067175314e-02 -2.2937041906516750e-04 0.0000000000000000e+00  2.0592313489295667e-02 8.6233834008616912e-04 0.0000000000000000e+00  6.3207844808728625e-02 8.4930937307827023e-04 0.0000000000000000e+00  9.5100165233907141e-03 1.9305655978827056e-05 0.0000000000000000e+00  1.4458643878656535e-02 2.6194702433343235e-04 0.0000000000000000e+00  5.7075890676013791e-02 2.5678446572814081e-04 0.0000000000000000e+00  2.2587720486901431e-02 2.6668779707239300e-04 0.0000000000000000e+00  6.5205554849423752e-02 2.5140463367183012e-04 0.0000000000000000e+00  1.0110080815810552e-02 -8.2153135376519934e-04 0.0000000000000000e+00  5.2556553910726000e-02 -8.1184979665608085e-04 0.0000000000000000e+00  4.1901317665819199e-02 -8.0618739632284703e-04 0.0000000000000000e+00  3.1245620891571010e-02 -8.0356485494433570e-04 0.0000000000000000e+00  7.3865069884166468e-02 -8.2977845221467270e-04 0.0000000000000000e+00  4.3829273009951736e-02 -1.2515716182880472e-03 0.0000000000000000e+00  3.3173157468249483e-02 -1.2482905072780698e-03 0.0000000000000000e+00  2.2519745333958067e-02 1.3076072966789606e-03 0.0000000000000000e+00  6.5134127919848961e-02 1.2925464899564273e-03 0.0000000000000000e+00  4.3890818562269500e-02 -2.1508082599569028e-04 0.0000000000000000e+00  3.3235872986917402e-02 -2.1173963791239829e-04 0.0000000000000000e+00  7.5968243096503546e-02 -2.6094583503501482e-04 0.0000000000000000e+00  1.4530115690928696e-02 1.3032571037938120e-03 0.0000000000000000e+00  5.7143037337830827e-02 1.2978307655912302e-03 0.0000000000000000e+00  7.5785636726799582e-02 1.2963397940993263e-03 0.0000000000000000e+00  7.4956815981135544e-02 8.5704024610093162e-04 0.0000000000000000e+00  1.9262916581126183e-02 -3.4468318967648912e-04 0.0000000000000000e+00  6.1883073859779966e-02 -3.5624250219125613e-04 0.0000000000000000e+00  7.9614281393995429e-02 -3.6166505996697144e-04 0.0000000000000000e+00  3.8498802230670322e-02 1.3076298223646862e-03 0.0000000000000000e+00  3.7664127787543439e-02 8.7057701526619823e-04 0.0000000000000000e+00  2.7845924832819464e-02 1.3088812647692682e-03 0.0000000000000000e+00  2.7010671408094281e-02 8.7150011074355906e-04 0.0000000000000000e+00  4.9152387694734533e-02 1.3027734361518233e-03 0.0000000000000000e+00  4.8318049611304426e-02 8.6591075890852316e-04 0.0000000000000000e+00  7.0462354900572413e-02 1.2899040529168197e-03 0.0000000000000000e+00  6.9627361729674278e-02 8.5261705554161434e-04 0.0000000000000000e+00  4.3825506703232771e-02 1.3055409728552792e-03 0.0000000000000000e+00  4.2991030470863570e-02 8.6860085286285941e-04 0.0000000000000000e+00  3.3172275173150308e-02 1.3088168485667722e-03 0.0000000000000000e+00  3.2337340920726980e-02 8.7161736220419837e-04 0.0000000000000000e+00  1.2369236764588271e-03 -3.9907721630484823e-04 0.0000000000000000e+00  8.3766973359291036e-02 3.7397439916808168e-04 0.0000000000000000e+00  3.0150972129232952e-02 3.5438934306762995e-04 0.0000000000000000e+00  4.0805230004653581e-02 3.5216348166148469e-04 0.0000000000000000e+00  7.2769338498740010e-02 3.3461340482358160e-04 0.0000000000000000e+00  6.5402311554678280e-02 -2