<?xml version="1.0"?>
<VTKFile type="UnstructuredGrid"  version="0.1"  >
<UnstructuredGrid>
<Piece  NumberOfPoints="820" NumberOfCells="1464">
<Points>
<DataArray  type="Float64"  NumberOfComponents="3"  format="ascii">0 0.1 0  0 0 0  1 0 0  1 0.1 0  0.5 0 0  0.5 0.1 0  0.25 0 0  0.25 0.1 0  0.75 0.1 0  0.75 0 0  0.375 0.1 0  0.375 0 0  0.125 0 0  0.125 0.1 0  0.625 0 0  0.625 0.1 0  0.875 0.1 0  0.875 0 0  0.6875 0.1 0  0.6875 0 0  0.5625 0 0  0.5625 0.1 0  0.0625 0.1 0  0.0625 0 0  0.1875 0.1 0  0.1875 0 0  0.3125 0 0  0.3125 0.1 0  0.4375 0.1 0  0.4375 0 0  0.8125 0 0  0.8125 0.1 0  0.9375 0.1 0  0.9375 0 0  0.84375 0.05000000000000001 0  0.78125 0.05 0  0.34375 0.05000000000000001 0  0.28125 0.05 0  0.15625 0.05 0  0.21875 0.05000000000000001 0  0 0.05 0  0.09375 0.05000000000000001 0  0.40625 0.05 0  0.46875 0.05000000000000001 0  0.53125 0.05 0  0.59375 0.05000000000000001 0  0.65625 0.05 0  0.71875 0.05000000000000001 0  0.90625 0.05 0  1 0.05 0  0.046875 0.04453125000000001 0  0.953125 0.05546875 0  0.96875 0 0  0.03125 0.1 0  0.03125 0 0  0.96875 0.1 0  1 0.07500000000000001 0  0.875 0.06523437500000001 0  0.8715625 0.03261718750000001 0  0.84375 0 0  0.90625 0.1 0  0.625 0.06523437500000001 0  0.6215625 0.03261718750000001 0  0.59375 0 0  0.6875 0.034765625 0  0.6840625 0.0673828125 0  0.65625 0.1 0  0.71875 0 0  0.5625 0.06523437500000001 0  0.5590625 0.03261718750000001 0  0.53125 0 0  0.65625 0 0  0.59375 0.1 0  0.5 0.06523437500000001 0  0.4965625 0.03261718750000001 0  0.46875 0 0  0.53125 0.1 0  0.4375 0.06523437500000001 0  0.4340625 0.03261718750000001 0  0.40625 0 0  0.46875 0.1 0  0.375 0.06523437500000001 0  0.3715625 0.03261718750000001 0  0.34375 0 0  0.40625 0.1 0  0.09375 0 0  0.09375 0.1 0  0.125 0.06523437500000001 0  0.1215625 0.03261718750000001 0  0.1875 0.034765625 0  0.1840625 0.0673828125 0  0.15625 0.1 0  0.21875 0 0  0.15625 0 0  0.28125 0.1 0  0.3125 0.06523437500000001 0  0.3090625 0.03261718750000001 0  0.28125 0 0  0.25 0.034765625 0  0.2534375 0.0673828125 0  0.21875 0.1 0  0.34375 0.1 0  0.78125 0.1 0  0.8125 0.06523437500000001 0  0.8090625 0.03261718750000001 0  0.78125 0 0  0.75 0.034765625 0  0.7534375 0.0673828125 0  0.71875 0.1 0  0.90625 0 0  0.84375 0.1 0  0.9740776699029127 0.03143583131067961 0  0.921875 0.075 0  0 0.025 0  0.02592233009708738 0.06856416868932039 0  0.0725 0.028515625 0  0.921875 0.025 0  0.078125 0.07500000000000001 0  0.9484670937186905 0.0242372460741816 0  0.05153290628130947 0.07576275392581842 0  0.8963594872172794 0.02643561701079966 0  0.02229817708333334 0.0375 0  0.9777018229166666 0.06250000000000001 0  0.72590087890625 0.025 0  0.8345789124085022 0.025 0  0.22590087890625 0.025 0  0.3345789124085023 0.025 0  0.15996337890625 0.075 0  0.39909912109375 0.075 0  0.4595789124085023 0.025 0  0.52409912109375 0.075 0  0.5845789124085022 0.025 0  0.65996337890625 0.075 0  0.27753662109375 0.075 0  0.77753662109375 0.075 0  0 0.07500000000000001 0  1 0.025 0  0.85090087890625 0.07500000000000001 0  0.77409912109375 0.025 0  0.35090087890625 0.07500000000000001 0  0.27409912109375 0.025 0  0.3970789124085022 0.025 0  0.47590087890625 0.07500000000000001 0  0.5220789124085022 0.025 0  0.60090087890625 0.07500000000000001 0  0.66340087890625 0.025 0  0.16340087890625 0.025 0  0.2095789124085023 0.07500000000000001 0  0.7095789124085022 0.07500000000000001 0  0.0974991439537346 0.02496950333675565 0  0.1029665898617512 0.07685681883640554 0  0.8970334101382489 0.07685681883640554 0  0.7331321502083639 0.0805418246751822 0  0.2331321502083639 0.08054182467518221 0  0.04967773437499999 0.02050781250000001 0  0.9302821601941748 0.04763728762135922 0  0.9453125 0.07773437499999999 0  0.06981448887637284 0.05242311804773303 0  0.703125 0.0173828125 0  0.203125 0.0173828125 0  0.828125 0.08261718750000001 0  0.328125 0.08261718750000001 0  0.4213608787615672 0.08215505604972331 0  0.453125 0.08261718750000001 0  0.5463608787615671 0.08215505604972331 0  0.578125 0.08261718750000001 0  0.6405370048634059 0.0181271643224308 0  0.1405370048634059 0.0181271643224308 0  0.796875 0.1 0  0.296875 0.1 0  0.6389903131525874 0.08261718750000001 0  0.1389903131525873 0.08261718750000001 0  0.796875 0 0  0.296875 0 0  0.359375 0 0  0.421875 0 0  0.484375 0 0  0.546875 0 0  0.609375 0 0  0.859375 0 0  0.984375 0 0  0.015625 0 0  0.9808265015870887 0.08306437698386088 0  0.015625 0.1 0  0.140615310157384 0.03789815460447876 0  0.8258710430305984 0.04237660226422156 0  0.3258710430305984 0.04237660226422154 0  0.4508710430305984 0.04237660226422154 0  0.5758710430305984 0.04237660226422156 0  0.73925254007477 0.05238802290978471 0  0.23925254007477 0.05238802290978471 0  0.19824745992523 0.05238802290978471 0  0.3883710430305984 0.04237660226422155 0  0.5133710430305984 0.04237660226422155 0  0.69824745992523 0.05238802290978471 0  0.6406153101573839 0.03789815460447876 0  0.8875652355519991 0.04398459561477483 0  0.03011990291140283 0.01954869700666445 0  0.2976228417042103 0.07944206017604956 0  0.7976228417042103 0.07944206017604956 0  0.6048261925064409 0.0202852140350185 0  0.8548261925064409 0.0202852140350185 0  0.4173261925064409 0.02028521403501849 0  0.5423261925064409 0.02028521403501849 0  0.479826192506441 0.02028521403501848 0  0.354826192506441 0.02028521403501848 0  0.7612196085333947 0.08469269433495656 0  0.2612196085333947 0.08469269433495656 0  0.671875 0.1 0  0.171875 0.1 0  0.1138156987561534 0.01531102667280419 0  0.1439032206506398 0.06434174268079966 0  0.6439032206506399 0.06434174268079966 0  0.7102169938849521 0.03403655887996306 0  0.2102169938849521 0.03403655887996306 0  0.331272668838501 0.06407394409179688 0  0.8312726688385009 0.06407394409179688 0  0.456272668838501 0.06407394409179688 0  0.5812726688385009 0.06407394409179688 0  0.9626931005513372 0.08290734481438196 0  0.7935362330470901 0.01983307912641665 0  0.2935362330470901 0.01983307912641665 0  0.078125 0 0  0.4143262322415116 0.06583278773374907 0  0.5393262322415115 0.06583278773374907 0  0.6756954193768612 0.08284197013692297 0  0.1756954193768612 0.08284197013692297 0  0.1934564775596677 0.08246105735569852 0  0.6934564775596677 0.0824610573556985 0  0.7948904737904949 0.06168801049385652 0  0.2948904737904949 0.06168801049385652 0  0.42558837890625 0.05 0  0.55058837890625 0.05 0  0.185643310546875 0.0173828125 0  0.685643310546875 0.0173828125 0  0.6085613945093048 0.05928612183988766 0  0.4835613945093048 0.05928612183988766 0  0.3585613945093048 0.05928612183988766 0  0.8585613945093048 0.05928612183988766 0  0.2430157823768409 0.0173828125 0  0.743015782376841 0.0173828125 0  0.11308837890625 0.05 0  0.1710613945093048 0.04071387816011236 0  0.6710613945093048 0.04071387816011236 0  0.2664386054906952 0.04071387816011236 0  0.7664386054906952 0.04071387816011236 0  0.1200872144236349 0.08261718750000001 0  0.618015782376841 0.08261718750000001 0  0.4930157823768409 0.08261718750000001 0  0.3680157823768409 0.08261718750000001 0  0.868015782376841 0.08261718750000001 0  0.515625 0.1 0  0.390625 0.1 0  0.265625 0 0  0.765625 0 0  0.516365031953596 0.05946768293606444 0  0.3913650319535959 0.05946768293606444 0  0.8926135952226929 0.06033018746614476 0  0.171875 0 0  0.671875 0 0  0.890625 0 0  0.8808652108632187 0.0171078614816925 0  0.2274441083295474 0.06456313374723947 0  0.7274441083295474 0.06456313374723946 0  0.9350285939903868 0.06406852472525566 0  0.453125 0 0  0.4433265752246126 0.01710378970181546 0  0.328125 0 0  0.3183265752246126 0.01710378970181546 0  0.578125 0 0  0.5683265752246126 0.01710378970181545 0  0.828125 0 0  0.8183265752246126 0.01710378970181545 0  0.515625 0 0  0.5058265752246126 0.01710378970181545 0  0.390625 0 0  0.3808265752246126 0.01710378970181545 0  0.01564771141956889 0.08260299286276945 0  0.9843522885804311 0.01739700713723054 0  0.3551736619148977 0.03733645281383641 0  0.4801736619148977 0.03733645281383641 0  0.8551736619148977 0.03733645281383642 0  0.7687346279121444 0.06091681090943113 0  0.2687346279121444 0.06091681090943113 0  0.6687653720878556 0.06091681090943113 0  0.1687653720878556 0.06091681090943113 0  0.6051736619148977 0.03733645281383642 0  0.2924478939734164 0.03697522410746614 0  0.7924478939734163 0.03697522410746614 0  0.8719142286486647 0.04906985056606887 0  0.6274213820068905 0.04848945596065109 0  0.4983341418505795 0.04892020701904073 0  0.3733341418505795 0.04892020701904073 0  0.3108341418505795 0.04892020701904073 0  0.8108341418505794 0.04892020701904073 0  0.6242024164762008 0.01640567476785111 0  0.3848561971730207 0.08410836408489761 0  0.5098561971730207 0.08410836408489761 0  0.2598561971730207 0.01589163591510238 0  0.7598561971730207 0.01589163591510238 0  0.890625 0.1 0  0.9582054159658413 0.03874795528975266 0  0.03565822065430611 0.08308352918541601 0  0.9643417793456939 0.016916470814584 0  0 0.0625 0  0.0168287001921521 0.05388159890776699 0  0.0417945840341587 0.06125204471024735 0  0.9831712998078479 0.04611840109223304 0  0.5622607296296599 0.08116332765030569 0  0.4372607296296599 0.08116332765030566 0  0.046875 0.1 0  0.953125 0 0  0.415919189453125 0.03668247284720479 0  0.540919189453125 0.03668247284720479 0  0.0859375 0.01393925506164327 0  0.109375 0.1 0  0.1338555271916189 0.05216484236021472 0  0.953125 0.1 0  0.140625 0 0  0.640625 0 0  0.546875 0.1 0  0.421875 0.1 0  0.203125 0 0  0.703125 0 0  0.046875 0 0  0.234375 0.1 0  0.734375 0.1 0  0.078125 0.1 0  0.921875 0 0  0.921875 0.1 0  0.828125 0.1 0  0.328125 0.1 0  0.453125 0.1 0  0.578125 0.1 0  0.640625 0.1 0  0.140625 0.1 0  0.984375 0.1 0  0.765625 0.1 0  0.265625 0.1 0  0.109375 0 0  0.203125 0.1 0  0.703125 0.1 0  0.234375 0 0  0.734375 0 0  0.609375 0.1 0  0.484375 0.1 0  0.359375 0.1 0  0.859375 0.1 0  0.03162846341645094 0.04971906156616034 0  0.9677597279973049 0.05078312969016881 0  0.8125319459969864 0.08431483734279674 0  0.3125319459969864 0.08431483734279674 0  0.01533347852251798 0.02378565849770013
[...]
<PointData  Vectors="damage"> 
<DataArray  type="Float64"  Name="damage"  NumberOfComponents="3" format="ascii">0.0000000000000000e+00 0.0000000000000000e+00 0.0000000000000000e+00  0.0000000000000000e+00 0.0000000000000000e+00 0.0000000000000000e+00  1.9831353809969304e-01 0.0000000000000000e+00 0.0000000000000000e+00  1.9831353809969304e-01 0.0000000000000000e+00 0.0000000000000000e+00  9.9152222955914471e-02 3.0476661004270982e-03 0.0000000000000000e+00  9.9160369238150220e-02 -2.9189533929952854e-03 0.0000000000000000e+00  4.9439161122612180e-02 3.0497511695104463e-03 0.0000000000000000e+00  4.9429762544396690e-02 -2.9167124228497532e-03 0.0000000000000000e+00  1.4888439256941469e-01 -2.9484827402722342e-03 0.0000000000000000e+00  1.4887187123667453e-01 3.0179886841613466e-03 0.0000000000000000e+00  7.4295898569578092e-02 -2.9123857828882932e-03 0.0000000000000000e+00  7.4294883542354528e-02 3.0542364745440838e-03 0.0000000000000000e+00  2.4585368652001713e-02 3.0442087557166681e-03 0.0000000000000000e+00  2.4562608842392114e-02 -2.9500845471821936e-03 0.0000000000000000e+00  1.2401121471675219e-01 3.0342382062907187e-03 0.0000000000000000e+00  1.2402319002091698e-01 -2.9323830772838540e-03 0.0000000000000000e+00  1.7374372868910479e-01 -2.9776107833849211e-03 0.0000000000000000e+00  1.7373320967077494e-01 3.0175503509731819e-03 0.0000000000000000e+00  1.3645398041784262e-01 -2.9403791756248310e-03 0.0000000000000000e+00  1.3644131575560650e-01 3.0262307895063054e-03 0.0000000000000000e+00  1.1158151170223794e-01 3.0415514885089789e-03 0.0000000000000000e+00  1.1159198428888284e-01 -2.9250675718339829e-03 0.0000000000000000e+00  1.2290152718444740e-02 -2.9465484198713220e-03 0.0000000000000000e+00  1.2313430502215483e-02 3.0124313473367005e-03 0.0000000000000000e+00  3.6995153922312354e-02 -2.9248293352706579e-03 0.0000000000000000e+00  3.7011018239166707e-02 3.0425649260129185e-03 0.0000000000000000e+00  6.1866833363168700e-02 3.0536557942494251e-03 0.0000000000000000e+00  6.1863042580870775e-02 -2.9129547251601456e-03 0.0000000000000000e+00  8.6728333328979237e-02 -2.9145522416431698e-03 0.0000000000000000e+00  8.6723346733465739e-02 3.0520677430089151e-03 0.0000000000000000e+00  1.6130377882221450e-01 3.0105714090024158e-03 0.0000000000000000e+00  1.6131531587366085e-01 -2.9567192458169475e-03 0.0000000000000000e+00  1.8601400220005049e-01 -2.9705043372498111e-03 0.0000000000000000e+00  1.8600138488453721e-01 2.9920884160172779e-03 0.0000000000000000e+00  1.6752357447004815e-01 2.3171539071444200e-05 0.0000000000000000e+00  1.5509308779373301e-01 3.0703756328626038e-05 0.0000000000000000e+00  6.8080164481788580e-02 7.1306736735007769e-05 0.0000000000000000e+00  5.5649717490023468e-02 6.9231855577585994e-05 0.0000000000000000e+00  3.0788839612207332e-02 5.4193547969952875e-05 0.0000000000000000e+00  4.3219486948791651e-02 6.3608138539079776e-05 0.0000000000000000e+00  0.0000000000000000e+00 0.0000000000000000e+00 0.0000000000000000e+00  1.8318936815677145e-02 4.0908611801670864e-05 0.0000000000000000e+00  8.0510631836342383e-02 7.0389176619627540e-05 0.0000000000000000e+00  9.2941069573996477e-02 6.6995191488715988e-05 0.0000000000000000e+00  1.0537153102699320e-01 6.1620090650467787e-05 0.0000000000000000e+00  1.1780197435296384e-01 5.4793974395120338e-05 0.0000000000000000e+00  1.3023242896101911e-01 4.7022191520933747e-05 0.0000000000000000e+00  1.4266287637391611e-01 3.8819596303373841e-05 0.0000000000000000e+00  1.7999514243568160e-01 1.6393727148808675e-05 0.0000000000000000e+00  1.9831353809969302e-01 0.0000000000000000e+00 0.0000000000000000e+00  8.8738036202916527e-03 3.3085595051174772e-04 0.0000000000000000e+00  1.8945203584403625e-01 -2.9160510454912474e-04 0.0000000000000000e+00  1.9188975718307894e-01 2.5894837553091434e-03 0.0000000000000000e+00  6.3860095180670621e-03 -2.5277614512141892e-03 0.0000000000000000e+00  6.4501518424037868e-03 2.5757035788177779e-03 0.0000000000000000e+00  1.9190308580038065e-01 -2.5294718877856438e-03 0.0000000000000000e+00  1.9831353809969304e-01 0.0000000000000000e+00 0.0000000000000000e+00  1.7374470838599210e-01 -8.9759503634573236e-04 0.0000000000000000e+00  1.7305669819527322e-01 1.0656800885573729e-03 0.0000000000000000e+00  1.6752061051765096e-01 3.0101161412501493e-03 0.0000000000000000e+00  1.7992701054182098e-01 -3.0001678172843684e-03 0.0000000000000000e+00  1.2401899653460345e-01 -8.5799081892708271e-04 0.0000000000000000e+00  1.2333148553806211e-01 1.0885779125775672e-03 0.0000000000000000e+00  1.1779631731897962e-01 3.0380112712281621e-03 0.0000000000000000e+00  1.3644575467970022e-01 9.5191570621688034e-04 0.0000000000000000e+00  1.3576614726702346e-01 -9.9377264229121931e-04 0.0000000000000000e+00  1.3023863778997899e-01 -2.9363275616525433e-03 0.0000000000000000e+00  1.4265652318684591e-01 3.0221120734458540e-03 0.0000000000000000e+00  1.1158831708599280e-01 -8.5062969246756245e-04 0.0000000000000000e+00  1.1090130197809651e-01 1.0958805708338824e-03 0.0000000000000000e+00  1.0536682579479886e-01 3.0447902033302063e-03 0.0000000000000000e+00  1.3022621200052634e-01 3.0302890668049576e-03 0.0000000000000000e+00  1.1780763950462021e-01 -2.9286028354746181e-03 0.0000000000000000e+00  9.9157507181268825e-02 -8.4447275940146747e-04 0.0000000000000000e+00  9.8471267687400929e-02 1.1019571632153535e-03 0.0000000000000000e+00  9.2937742433342810e-02 3.0501008417484813e-03 0.0000000000000000e+00  1.0537621961929708e-01 -2.9218243786053944e-03 0.0000000000000000e+00  8.6726578511604327e-02 -8.4002368602815558e-04 0.0000000000000000e+00  8.6041365861562968e-02 1.1062900214919712e-03 0.0000000000000000e+00  8.0509080260286678e-02 3.0534608975362541e-03 0.0000000000000000e+00  9.2944407311744942e-02 -2.9164966247851591e-03 0.0000000000000000e+00  7.4295514448971894e-02 -8.3781512750561956e-04 0.0000000000000000e+00  7.3611620337111341e-02 1.1083642991399560e-03 0.0000000000000000e+00  6.8080822083532722e-02 3.0543015860202637e-03 0.0000000000000000e+00  8.0512155202515021e-02 -2.9131512905964988e-03 0.0000000000000000e+00  1.8403704943332006e-02 3.0546565155572915e-03 0.0000000000000000e+00  1.8378560787298076e-02 -2.9746593504077021e-03 0.0000000000000000e+00  2.4565889963593854e-02 -8.6975616235888628e-04 0.0000000000000000e+00  2.3890222036723453e-02 1.0944411061530495e-03 0.0000000000000000e+00  3.7006923219474519e-02 9.6841893581842684e-04 0.0000000000000000e+00  3.6317916616494299e-02 -9.7871869990458801e-04 0.0000000000000000e+00  3.0777011236963418e-02 -2.9330871760906456e-03 0.0000000000000000e+00  4.3225299288722242e-02 3.0464275855082447e-03 0.0000000000000000e+00  3.0796300170733010e-02 3.0400987133029178e-03 0.0000000000000000e+00  5.5646453315384627e-02 -2.9143969970810086e-03 0.0000000000000000e+00  6.1864333531437825e-02 -8.3834871628894335e-04 0.0000000000000000e+00  6.1182009360744638e-02 1.1076563150760413e-03 0.0000000000000000e+00  5.5652978045121135e-02 3.0521672973862234e-03 0.0000000000000000e+00  4.9435977972156021e-02 9.7578484866721381e-04 0.0000000000000000e+00  5.0116589166653076e-02 -9.6997798987690095e-04 0.0000000000000000e+00  4.3212705900662209e-02 -2.9199963711012988e-03 0.0000000000000000e+00  6.8079527477679522e-02 -2.9122826496064311e-03 0.0000000000000000e+00  1.5509962975395902e-01 -2.9524163883593458e-03 0.0000000000000000e+00  1.6130984465523285e-01 -8.8227633300659494e-04 0.0000000000000000e+00  1.6062252879611855e-01 1.0645291617541333e-03 0.0000000000000000e+00  1.5508749228842436e-01 3.0139473702338955e-03 0.0000000000000000e+00  1.4887619048350487e-01 9.4364877720970128e-04 0.0000000000000000e+00  1.4956388489108452e-01 -1.0028265632925854e-03 0.0000000000000000e+00  1.4266922103770852e-01 -2.9444584432859995e-03 0.0000000000000000e+00  1.7991790581472586e-01 3.0339603656083301e-03 0.0000000000000000e+00  1.6753151134846581e-01 -2.9633481509557828e-03 0.0000000000000000e+00  1.9354556161117067e-01 7.3227694893223403e-04 0.0000000000000000e+00  1.8307886197461909e-01 -1.5157142599022983e-03 0.0000000000000000e+00  0.0000000000000000e+00 0.0000000000000000e+00 0.0000000000000000e+00  4.7872585552974183e-03 -7.3975909151031873e-04 0.0000000000000000e+00  1.4100245278683705e-02 1.3466370312876358e-03 0.0000000000000000e+00  1.8307749231112880e-01 1.5464248392026124e-03 0.0000000000000000e+00  1.5225632400250683e-02 -1.4910691662331681e-03 0.0000000000000000e+00  1.8838835475054858e-01 1.5157201351637933e-03 0.0000000000000000e+00  9.9107040367596433e-03 -1.4714263285690835e-03 0.0000000000000000e+00  1.7799082490392626e-01 1.4486821763053121e-03 0.0000000000000000e+00  4.0282308340080395e-03 4.5008801556331666e-04 0.0000000000000000e+00  1.9429984475317394e-01 -4.3850145304311452e-04 0.0000000000000000e+00  1.4408196532378523e-01 1.5295077877407613e-03 0.0000000000000000e+00  1.6569685267919981e-01 1.5174062109113145e-03 0.0000000000000000e+00  4.4644505183283043e-02 1.5558866961865412e-03 0.0000000000000000e+00  6.6256692943072196e-02 1.5627790407075244e-03 0.0000000000000000e+00  3.1522846320546929e-02 -1.4392615618828951e-03 0.0000000000000000e+00  7.9089015369080765e-02 -1.4210713978504851e-03 0.0000000000000000e+00  9.1115545495794745e-02 1.5592403639164460e-03 0.0000000000000000e+00  1.0395154726119629e-01 -1.4293631888707100e-03 0.0000000000000000e+00  1.1597522449415465e-01 1.5475001107364101e-03 0.0000000000000000e+00  1.3097404884953237e-01 -1.4451227370949617e-03 0.0000000000000000e+00  5.4909416477984120e-02 -1.4227335888503596e-03 0.0000000000000000e+00  1.5435776229599499e-01 -1.4603303644851174e-03 0.0000000000000000e+00  0.0000000000000000e+00 0.0000000000000000e+00 0.0000000000000000e+00  1.9831353809969304e-01 0.0000000000000000e+00 0.0000000000000000e+00  1.6894824597631949e-01 -1.4734420155288915e-03 0.0000000000000000e+00  1.5366804575389822e-01 1.5231483780629293e-03 0.0000000000000000e+00  6.9502163917055437e-02 -1.4203782635369628e-03 0.0000000000000000e+00  5.4229329652665186e-02 1.5603113497829702e-03 0.0000000000000000e+00  7.8686017011445578e-02 1.5622890279610167e-03 0.0000000000000000e+00  9.4365009540141570e-02 -1.4252270206764645e-03 0.0000000000000000e+00  1.0354528337955182e-01 1.5541324564437382e-03 0.0000000000000000e+00  1.1922703113830477e-01 -1.4377305113893841e-03 0.0000000000000000e+00  1.3165155908938797e-01 1.5377406970300191e-03 0.0000000000000000e+00  3.2215989731494837e-02 1.5486463292288830e-03 0.0000000000000000e+00  4.1391920406731800e-02 -1.4291762576151322e-03 0.0000000000000000e+00  1.4084200887434087e-01 -1.4516119810003348e-03 0.0000000000000000e+00  1.9104513858546023e-02 1.5649055357670951e-03 0.0000000000000000e+00  2.0182016165944294e-02 -1.5874227276533794e-03 0.0000000000000000e+00  1.7812446657555853e-01 -1.6126058052869875e-03 0.0000000000000000e+00  1.4552713124205610e-01 -1.7853387442460570e-03 0.0000000000000000e+00  4.6076239105317135e-02 -1.7570860981468701e-03 0.0000000000000000e+00  9.6045171722214003e-03 1.7264459165003362e-03 0.0000000000000000e+00  1.8483969559091137e-01 1.5720301919793268e-04 0.0000000000000000e+00  1.8773682450950099e-01 -1.6270652255538391e-03 0.0000000000000000e+00  1.3497298318853856e-02 -1.1431218264165854e-04 0.0000000000000000e+00  1.3955115693212086e-01 1.9870139705452819e-03 0.0000000000000000e+00  4.0116206307121025e-02 2.0074923963264582e-03 0.0000000000000000e+00  1.6441995510970189e-01 -1.9222311713613831e-03 0.0000000000000000e+00  6.4971692809080397e-02 -1.8751883854111044e-03 0.0000000000000000e+00  8.3517228303375365e-02 -1.8488833347816967e-03 0.0000000000000000e+00  8.9835331074451463e-02 -1.8781784162835563e-03 0.0000000000000000e+00  1.0838003885391399e-01 -1.8585363583867170e-03 0.0000000000000000e+00  1.1469788725306775e-01 -1.8895773454418274e-03 0.0000000000000000e+00  1.2710345296968475e-01 1.9507466436943510e-03 0.0000000000000000e+00  2.7670954867523877e-02 1.9594700190742774e-03 0.0000000000000000e+00  1.5820737184456657e-01 -2.9544393149725703e-03 0.0000000000000000e+00  5.8754751699246301e-02 -2.9135807613774670e-03 0.0000000000000000e+00  1.2680363742124084e-01 -1.8969350579880310e-03 0.0000000000000000e+00  2.7349581540731870e-02 -1.9033696007838862e-03 0.0000000000000000e+00  1.5819552417378940e-01 3.0120820110625833e-03 0.0000000000000000e+00  5.8759894574915227e-02 3.0530304546970682e-03 0.0000000000000000e+00  7.1187838896962521e-02 3.0543697900778061e-03 0.0000000000000000e+00  8.3616195654564060e-02 3.0528400429277788e-03 0.0000000000000000e+00  9.6044968575548659e-02 3.0489473712165607e-03 0.0000000000000000e+00  1.0847415244455529e-01 3.0432129080493722e-03 0.0000000000000000e+00  1.2090374983011472e-01 3.0361497181477953e-03 0.0000000000000000e+00  1.7062831893568886e-01 3.0123754560380999e-03 0.0000000000000000e+00  1.9478985682121161e-01 1.7982343447465526e-03 0.0000000000000000e+00  3.5112810149539164e-03 1.8917387384674233e-03 0.0000000000000000e+00  1.9475984047394201e-01 -1.1327074662679762e-03 0.0000000000000000e+00  3.4070598117345958e-03 -1.7430952059320126e-03 0.0000000000000000e+00  2.7680593628082201e-02 7.7659675226959466e-04 0.0000000000000000e+00  1.6396639658173906e-01 4.8034670037375068e-04 0.0000000000000000e+00  6.4524490294122175e-02 5.2588359875728398e-04 0.0000000000000000e+00  8.9384743238077907e-02 5.2304440449838093e-04 0.0000000000000000e+00  1.1424526087210526e-01 5.1172196822064833e-04 0.0000000000000000e+00  1.4674084388786510e-01 -1.0635406278892866e-04 0.0000000000000000e+00  4.7296799894315816e-02 -7.6606027060935054e-05 0.0000000000000000e+00  3.9141668793504100e-02 -8.1573850256540982e-05 0.0000000000000000e+00  7.6954590279076085e-02 5.2578174368970499e-04 0.0000000000000000e+00  1.0181497813117320e-01 5.1818479897652219e-04 0.0000000000000000e+00  1.3858548712008428e-01 -1.0095711077446160e-04 0.0000000000000000e+00  1.2712143247147514e-01 7.7109376130311965e-04 0.0000000000000000e+00  1.7625234922549082e-01 3.8318553034716362e-04 0.0000000000000000e+00  5.7246630326414352e-03 1.4472518652470371e-03 0.0000000000000000e+00  5.8904528444126962e-02 -1.6867121962325304e-03 0.0000000000000000e+00  1.5835315020087792e-01 -1.7279148390416381e-03 0.0000000000000000e+00  1.2000148423587546e-01 1.8264102835831076e-03 0.0000000000000000e+00  1.6972350931844082e-01 1.8004738925625678e-03 0.0000000000000000e+00  8.2712441556231808e-02 1.8428469051093438e-03 0.0000000000000000e+00  1.0757155797344094e-01 1.8334268657178951e-03 0.0000000000000000e+00  9.5141878088063583e-02 1.8390755691235637e-03 0.0000000000000000e+00  7.0283251135472305e-02 1.8442163212239332e-03 0.0000000000000000e+00  1.5111384874244255e-01 -2.0365880858070071e-03 0.0000000000000000e+00  5.1662975889450270e-02 -2.0022886029320047e-03 0.0000000000000000e+00  1.3334632136022964e-01 -2.9383453752596027e-03 0.0000000000000000e+00  3.3886104310608491e-02 -2.9281759541012844e-03 0.0000000000000000e+00  2.2361594299811993e-02 2.1358809158450701e-03 0.0000000000000000e+00  2.8329563843321574e-02 -8.0753880711283978e-04 0.0000000000000000e+00  1.2777854309579886e-01 -8.0711527621775555e-04 0.0000000000000000e+00  1.4096377240351476e-01 9.9241540870828701e-04 0.0000000000000000e+00  4.1524546062729518e-02 1.0148938407110910e-03 0.0000000000000000e+00  6.5598240349155831e-02 -7.6862569107495854e-04 0.0000000000000000e+00  1.6504324878436075e-01 -8.1598634305777044e-04 0.0000000000000000e+00  9.0460311707747584e-02 -7.7191072673792873e-04 0.0000000000000000e+00  1.1532191701546254e-01 -7.8349916317372367e-04 0.0000000000000000e+00  1.9112282727216667e-01 -1.7235908105256014e-03 0.0000000000000000e+00  1.5753336921278760e-01 1.8290170010160723e-03 0.0000000000000000e+00  5.8094961720140136e-02 1.8697024309926999e-03 0.0000000000000000e+00  1.5340329336684397e-02 3.0491558386934632e-03 0.0000000000000000e+00  8.2117417121036582e-02 -8.7461820242440609e-04 0.0000000000000000e+00  1.0697928809627487e-01 -8.8388156180415278e-04 0.0000000000000000e+00  1.3410397253032835e-01 -1.9150741868742924e-03 0.0000000000000000e+00  3.4650406240268418e-02 -1.9031002776830942e-03 0.0000000000000000e+00  3.8183573352870634e-02 -1.8768515748376232e-03 0.0000000000000000e+00  1.3763640168785807e-01 -1.8946685679534115e-03 0.0000000000000000e+00  1.5780729900123758e-01 -6.6832790543831615e-04 0.0000000000000000e+00  5.8361985153068736e-02 -6.2744139229102894e-04 0.0000000000000000e+00  8.4356772970215321e-02 6.9577753189687744e-05 0.0000000000000000e+00  1.0921767833592103e-01 5.9638035220473436e-05 0.0000000000000000e+00  3.6639914294118038e-02 2.0053075719212001e-03 0.0000000000000000e+00  1.3607429045753572e-01 1.9893187288663903e-03 0.0000000000000000e+00  1.2074883551181040e-01 -5.0105085818049515e-04 0.0000000000000000e+00  9.5887535750730932e-02 -4.8818828601231151e-04 0.0000000000000000e+00  7.1025927837784913e-02 -4.8272871229408459e-04 0.0000000000000000e+00  1.7047145515674256e-01 -5.3519764448547893e-04 0.0000000000000000e+00  4.8048731475023310e-02 2.0121227935342417e-03 0.0000000000000000e+00  1.4748497122036699e-01 1.9817218705158093e-03 0.0000000000000000e+00  2.2190038554578378e-02 4.5046530617215174e-05 0.0000000000000000e+00  3.3736835716865317e-02 6.1120972344458173e-04 0.0000000000000000e+00  1.3317707824403241e-01 5.9916375336542397e-04 0.0000000000000000e+00  5.2704681136103444e-02 6.2227152650206762e-04 0.0000000000000000e+00  1.5214629464865559e-01 5.8661081190080212e-04 0.0000000000000000e+00  2.3590188570224692e-02 -1.9169064921188553e-03 0.0000000000000000e+00  1.2263195912502753e-01 -1.8943161921977974e-03 0.0000000000000000e+00  9.7769741220245052e-02 -1.8811039247535973e-03 0.0000000000000000e+00  7.2906448746999211e-02 -1.8749846615370540e-03 0.0000000000000000e+00  1.7235182972972191e-01 -1.9361497218343094e-03 0.0000000000000000e+00  1.0226830368988761e-01 -2.9203337760057226e-03 0.0000000000000000e+00  7.7404034092582286e-02 -2.9126778503157829e-03 0.0000000000000000e+00  5.2546072445902231e-02 3.0510836922507294e-03 0.0000000000000000e+00  1.5197963181298110e-01 3.0159418098981922e-03 0.0000000000000000e+00  1.0241190997862908e-01 -5.0185526065690031e-04 0.0000000000000000e+00  7.7550370302807467e-02 -4.9405915512920747e-04 0.0000000000000000e+00  1.7725923389184173e-01 -6.0887361508177144e-04 0.0000000000000000e+00  3.3903603278833655e-02 3.0409332421854739e-03 0.0000000000000000e+00  1.3333375378827220e-01 3.0282717863793027e-03 0.0000000000000000e+00  1.7683315236253247e-01 3.0247928528983311e-03 0.0000000000000000e+00  1.7489923728931639e-01 1.9997605742354293e-03 0.0000000000000000e+00  4.4946805355961197e-02 -8.0426077591195502e-04 0.0000000000000000e+00  1.4439383900615343e-01 -8.3123250511309772e-04 0.0000000000000000e+00  1.8576665658598940e-01 -8.4388513992298059e-04 0.0000000000000000e+00  8.9830538538230920e-02 3.0511362521839958e-03 0.0000000000000000e+00  8.7882964837601538e-02 2.0313463689541882e-03 0.0000000000000000e+00  6.4973824609912190e-02 3.0540562844613992e-03 0.0000000000000000e+00  6.3024899952220076e-02 2.0335002584014137e-03 0.0000000000000000e+00  1.1468890462104749e-01 3.0398046843539786e-03 0.0000000000000000e+00  1.1274211575971058e-01 2.0204584374529347e-03 0.0000000000000000e+00  1.6441216143466911e-01 3.0097761234724710e-03 0.0000000000000000e+00  1.6246384403590683e-01 1.9894397962636791e-03 0.0000000000000000e+00  1.0225951564087662e-01 3.0462622699953760e-03 0.0000000000000000e+00  1.0031240443201521e-01 2.0267353233463948e-03 0.0000000000000000e+00  7.7401975404017553e-02 3.0539059799888661e-03 0.0000000000000000e+00  7.5453795481696451e-02 2.0337738451428589e-03 0.0000000000000000e+00  2.8861552450706054e-03 -9.3118017137798265e-04 0.0000000000000000e+00  1.9545627117167913e-01 8.7260693139217037e-04 0.0000000000000000e+00  7.0352268301543702e-02 8.2690846715755082e-04 0.0000000000000000e+00  9.5212203344191906e-02 8.2171479054318579e-04 0.0000000000000000e+00  1.6979512316372683e-01 7.8076461125494204e-04 0.0000000000000000e+00  1.5260539362758274e-01 -6