<?xml version="1.0"?>
<VTKFile type="UnstructuredGrid"  version="0.1"  >
<UnstructuredGrid>
<Piece  NumberOfPoints="820" NumberOfCells="1464">
<Points>
<DataArray  type="Float64"  NumberOfComponents="3"  format="ascii">0 0.1 0  0 0 0  1 0 0  1 0.1 0  0.5 0 0  0.5 0.1 0  0.25 0 0  0.25 0.1 0  0.75 0.1 0  0.75 0 0  0.375 0.1 0  0.375 0 0  0.125 0 0  0.125 0.1 0  0.625 0 0  0.625 0.1 0  0.875 0.1 0  0.875 0 0  0.6875 0.1 0  0.6875 0 0  0.5625 0 0  0.5625 0.1 0  0.0625 0.1 0  0.0625 0 0  0.1875 0.1 0  0.1875 0 0  0.3125 0 0  0.3125 0.1 0  0.4375 0.1 0  0.4375 0 0  0.8125 0 0  0.8125 0.1 0  0.9375 0.1 0  0.9375 0 0  0.84375 0.05000000000000001 0  0.78125 0.05 0  0.34375 0.05000000000000001 0  0.28125 0.05 0  0.15625 0.05 0  0.21875 0.05000000000000001 0  0 0.05 0  0.09375 0.05000000000000001 0  0.40625 0.05 0  0.46875 0.05000000000000001 0  0.53125 0.05 0  0.59375 0.05000000000000001 0  0.65625 0.05 0  0.71875 0.05000000000000001 0  0.90625 0.05 0  1 0.05 0  0.046875 0.04453125000000001 0  0.953125 0.05546875 0  0.96875 0 0  0.03125 0.1 0  0.03125 0 0  0.96875 0.1 0  1 0.07500000000000001 0  0.875 0.06523437500000001 0  0.8715625 0.03261718750000001 0  0.84375 0 0  0.90625 0.1 0  0.625 0.06523437500000001 0  0.6215625 0.03261718750000001 0  0.59375 0 0  0.6875 0.034765625 0  0.6840625 0.0673828125 0  0.65625 0.1 0  0.71875 0 0  0.5625 0.06523437500000001 0  0.5590625 0.03261718750000001 0  0.53125 0 0  0.65625 0 0  0.59375 0.1 0  0.5 0.06523437500000001 0  0.4965625 0.03261718750000001 0  0.46875 0 0  0.53125 0.1 0  0.4375 0.06523437500000001 0  0.4340625 0.03261718750000001 0  0.40625 0 0  0.46875 0.1 0  0.375 0.06523437500000001 0  0.3715625 0.03261718750000001 0  0.34375 0 0  0.40625 0.1 0  0.09375 0 0  0.09375 0.1 0  0.125 0.06523437500000001 0  0.1215625 0.03261718750000001 0  0.1875 0.034765625 0  0.1840625 0.0673828125 0  0.15625 0.1 0  0.21875 0 0  0.15625 0 0  0.28125 0.1 0  0.3125 0.06523437500000001 0  0.3090625 0.03261718750000001 0  0.28125 0 0  0.25 0.034765625 0  0.2534375 0.0673828125 0  0.21875 0.1 0  0.34375 0.1 0  0.78125 0.1 0  0.8125 0.06523437500000001 0  0.8090625 0.03261718750000001 0  0.78125 0 0  0.75 0.034765625 0  0.7534375 0.0673828125 0  0.71875 0.1 0  0.90625 0 0  0.84375 0.1 0  0.9740776699029127 0.03143583131067961 0  0.921875 0.075 0  0 0.025 0  0.02592233009708738 0.06856416868932039 0  0.0725 0.028515625 0  0.921875 0.025 0  0.078125 0.07500000000000001 0  0.9484670937186905 0.0242372460741816 0  0.05153290628130947 0.07576275392581842 0  0.8963594872172794 0.02643561701079966 0  0.02229817708333334 0.0375 0  0.9777018229166666 0.06250000000000001 0  0.72590087890625 0.025 0  0.8345789124085022 0.025 0  0.22590087890625 0.025 0  0.3345789124085023 0.025 0  0.15996337890625 0.075 0  0.39909912109375 0.075 0  0.4595789124085023 0.025 0  0.52409912109375 0.075 0  0.5845789124085022 0.025 0  0.65996337890625 0.075 0  0.27753662109375 0.075 0  0.77753662109375 0.075 0  0 0.07500000000000001 0  1 0.025 0  0.85090087890625 0.07500000000000001 0  0.77409912109375 0.025 0  0.35090087890625 0.07500000000000001 0  0.27409912109375 0.025 0  0.3970789124085022 0.025 0  0.47590087890625 0.07500000000000001 0  0.5220789124085022 0.025 0  0.60090087890625 0.07500000000000001 0  0.66340087890625 0.025 0  0.16340087890625 0.025 0  0.2095789124085023 0.07500000000000001 0  0.7095789124085022 0.07500000000000001 0  0.0974991439537346 0.02496950333675565 0  0.1029665898617512 0.07685681883640554 0  0.8970334101382489 0.07685681883640554 0  0.7331321502083639 0.0805418246751822 0  0.2331321502083639 0.08054182467518221 0  0.04967773437499999 0.02050781250000001 0  0.9302821601941748 0.04763728762135922 0  0.9453125 0.07773437499999999 0  0.06981448887637284 0.05242311804773303 0  0.703125 0.0173828125 0  0.203125 0.0173828125 0  0.828125 0.08261718750000001 0  0.328125 0.08261718750000001 0  0.4213608787615672 0.08215505604972331 0  0.453125 0.08261718750000001 0  0.5463608787615671 0.08215505604972331 0  0.578125 0.08261718750000001 0  0.6405370048634059 0.0181271643224308 0  0.1405370048634059 0.0181271643224308 0  0.796875 0.1 0  0.296875 0.1 0  0.6389903131525874 0.08261718750000001 0  0.1389903131525873 0.08261718750000001 0  0.796875 0 0  0.296875 0 0  0.359375 0 0  0.421875 0 0  0.484375 0 0  0.546875 0 0  0.609375 0 0  0.859375 0 0  0.984375 0 0  0.015625 0 0  0.9808265015870887 0.08306437698386088 0  0.015625 0.1 0  0.140615310157384 0.03789815460447876 0  0.8258710430305984 0.04237660226422156 0  0.3258710430305984 0.04237660226422154 0  0.4508710430305984 0.04237660226422154 0  0.5758710430305984 0.04237660226422156 0  0.73925254007477 0.05238802290978471 0  0.23925254007477 0.05238802290978471 0  0.19824745992523 0.05238802290978471 0  0.3883710430305984 0.04237660226422155 0  0.5133710430305984 0.04237660226422155 0  0.69824745992523 0.05238802290978471 0  0.6406153101573839 0.03789815460447876 0  0.8875652355519991 0.04398459561477483 0  0.03011990291140283 0.01954869700666445 0  0.2976228417042103 0.07944206017604956 0  0.7976228417042103 0.07944206017604956 0  0.6048261925064409 0.0202852140350185 0  0.8548261925064409 0.0202852140350185 0  0.4173261925064409 0.02028521403501849 0  0.5423261925064409 0.02028521403501849 0  0.479826192506441 0.02028521403501848 0  0.354826192506441 0.02028521403501848 0  0.7612196085333947 0.08469269433495656 0  0.2612196085333947 0.08469269433495656 0  0.671875 0.1 0  0.171875 0.1 0  0.1138156987561534 0.01531102667280419 0  0.1439032206506398 0.06434174268079966 0  0.6439032206506399 0.06434174268079966 0  0.7102169938849521 0.03403655887996306 0  0.2102169938849521 0.03403655887996306 0  0.331272668838501 0.06407394409179688 0  0.8312726688385009 0.06407394409179688 0  0.456272668838501 0.06407394409179688 0  0.5812726688385009 0.06407394409179688 0  0.9626931005513372 0.08290734481438196 0  0.7935362330470901 0.01983307912641665 0  0.2935362330470901 0.01983307912641665 0  0.078125 0 0  0.4143262322415116 0.06583278773374907 0  0.5393262322415115 0.06583278773374907 0  0.6756954193768612 0.08284197013692297 0  0.1756954193768612 0.08284197013692297 0  0.1934564775596677 0.08246105735569852 0  0.6934564775596677 0.0824610573556985 0  0.7948904737904949 0.06168801049385652 0  0.2948904737904949 0.06168801049385652 0  0.42558837890625 0.05 0  0.55058837890625 0.05 0  0.185643310546875 0.0173828125 0  0.685643310546875 0.0173828125 0  0.6085613945093048 0.05928612183988766 0  0.4835613945093048 0.05928612183988766 0  0.3585613945093048 0.05928612183988766 0  0.8585613945093048 0.05928612183988766 0  0.2430157823768409 0.0173828125 0  0.743015782376841 0.0173828125 0  0.11308837890625 0.05 0  0.1710613945093048 0.04071387816011236 0  0.6710613945093048 0.04071387816011236 0  0.2664386054906952 0.04071387816011236 0  0.7664386054906952 0.04071387816011236 0  0.1200872144236349 0.08261718750000001 0  0.618015782376841 0.08261718750000001 0  0.4930157823768409 0.08261718750000001 0  0.3680157823768409 0.08261718750000001 0  0.868015782376841 0.08261718750000001 0  0.515625 0.1 0  0.390625 0.1 0  0.265625 0 0  0.765625 0 0  0.516365031953596 0.05946768293606444 0  0.3913650319535959 0.05946768293606444 0  0.8926135952226929 0.06033018746614476 0  0.171875 0 0  0.671875 0 0  0.890625 0 0  0.8808652108632187 0.0171078614816925 0  0.2274441083295474 0.06456313374723947 0  0.7274441083295474 0.06456313374723946 0  0.9350285939903868 0.06406852472525566 0  0.453125 0 0  0.4433265752246126 0.01710378970181546 0  0.328125 0 0  0.3183265752246126 0.01710378970181546 0  0.578125 0 0  0.5683265752246126 0.01710378970181545 0  0.828125 0 0  0.8183265752246126 0.01710378970181545 0  0.515625 0 0  0.5058265752246126 0.01710378970181545 0  0.390625 0 0  0.3808265752246126 0.01710378970181545 0  0.01564771141956889 0.08260299286276945 0  0.9843522885804311 0.01739700713723054 0  0.3551736619148977 0.03733645281383641 0  0.4801736619148977 0.03733645281383641 0  0.8551736619148977 0.03733645281383642 0  0.7687346279121444 0.06091681090943113 0  0.2687346279121444 0.06091681090943113 0  0.6687653720878556 0.06091681090943113 0  0.1687653720878556 0.06091681090943113 0  0.6051736619148977 0.03733645281383642 0  0.2924478939734164 0.03697522410746614 0  0.7924478939734163 0.03697522410746614 0  0.8719142286486647 0.04906985056606887 0  0.6274213820068905 0.04848945596065109 0  0.4983341418505795 0.04892020701904073 0  0.3733341418505795 0.04892020701904073 0  0.3108341418505795 0.04892020701904073 0  0.8108341418505794 0.04892020701904073 0  0.6242024164762008 0.01640567476785111 0  0.3848561971730207 0.08410836408489761 0  0.5098561971730207 0.08410836408489761 0  0.2598561971730207 0.01589163591510238 0  0.7598561971730207 0.01589163591510238 0  0.890625 0.1 0  0.9582054159658413 0.03874795528975266 0  0.03565822065430611 0.08308352918541601 0  0.9643417793456939 0.016916470814584 0  0 0.0625 0  0.0168287001921521 0.05388159890776699 0  0.0417945840341587 0.06125204471024735 0  0.9831712998078479 0.04611840109223304 0  0.5622607296296599 0.08116332765030569 0  0.4372607296296599 0.08116332765030566 0  0.046875 0.1 0  0.953125 0 0  0.415919189453125 0.03668247284720479 0  0.540919189453125 0.03668247284720479 0  0.0859375 0.01393925506164327 0  0.109375 0.1 0  0.1338555271916189 0.05216484236021472 0  0.953125 0.1 0  0.140625 0 0  0.640625 0 0  0.546875 0.1 0  0.421875 0.1 0  0.203125 0 0  0.703125 0 0  0.046875 0 0  0.234375 0.1 0  0.734375 0.1 0  0.078125 0.1 0  0.921875 0 0  0.921875 0.1 0  0.828125 0.1 0  0.328125 0.1 0  0.453125 0.1 0  0.578125 0.1 0  0.640625 0.1 0  0.140625 0.1 0  0.984375 0.1 0  0.765625 0.1 0  0.265625 0.1 0  0.109375 0 0  0.203125 0.1 0  0.703125 0.1 0  0.234375 0 0  0.734375 0 0  0.609375 0.1 0  0.484375 0.1 0  0.359375 0.1 0  0.859375 0.1 0  0.03162846341645094 0.04971906156616034 0  0.9677597279973049 0.05078312969016881 0  0.8125319459969864 0.08431483734279674 0  0.3125319459969864 0.08431483734279674 0  0.01533347852251798 0.02378565849770013
[...]
<PointData  Vectors="damage"> 
<DataArray  type="Float64"  Name="damage"  NumberOfComponents="3" format="ascii">0.0000000000000000e+00 0.0000000000000000e+00 0.0000000000000000e+00  0.0000000000000000e+00 0.0000000000000000e+00 0.0000000000000000e+00  1.8414828537828640e-01 0.0000000000000000e+00 0.0000000000000000e+00  1.8414828537828640e-01 0.0000000000000000e+00 0.0000000000000000e+00  9.2069921316206171e-02 2.8299756646823384e-03 0.0000000000000000e+00  9.2077485721139385e-02 -2.7104567220670108e-03 0.0000000000000000e+00  4.5907792470996987e-02 2.8319118002597351e-03 0.0000000000000000e+00  4.5899065219796857e-02 -2.7083758212175777e-03 0.0000000000000000e+00  1.3824979310017069e-01 -2.7378768302528909e-03 0.0000000000000000e+00  1.3823816614834050e-01 2.8024180638640127e-03 0.0000000000000000e+00  6.8989048671750999e-02 -2.7043582269676326e-03 0.0000000000000000e+00  6.8988106146471967e-02 2.8360767263624332e-03 0.0000000000000000e+00  2.2829270891144424e-02 2.8267652731654930e-03 0.0000000000000000e+00  2.2808136782221211e-02 -2.7393642223834422e-03 0.0000000000000000e+00  1.1515327080841260e-01 2.8175069058413512e-03 0.0000000000000000e+00  1.1516439073370857e-01 -2.7229271431921920e-03 0.0000000000000000e+00  1.6133346235416857e-01 -2.7649242988575231e-03 0.0000000000000000e+00  1.6132369469429095e-01 2.8020110401892825e-03 0.0000000000000000e+00  1.2670726753085379e-01 -2.7303520916517293e-03 0.0000000000000000e+00  1.2669550748734876e-01 2.8100714473986640e-03 0.0000000000000000e+00  1.0361140372350650e-01 2.8242978107583415e-03 0.0000000000000000e+00  1.0362112826824822e-01 -2.7161341738458421e-03 0.0000000000000000e+00  1.1412284667127239e-02 -2.7360806755947877e-03 0.0000000000000000e+00  1.1433899752057228e-02 2.7972576796697970e-03 0.0000000000000000e+00  3.4352642927861436e-02 -2.7159129541798653e-03 0.0000000000000000e+00  3.4367374079226194e-02 2.8252388598691658e-03 0.0000000000000000e+00  5.7447773837228017e-02 2.8355375232316654e-03 0.0000000000000000e+00  5.7444253825094230e-02 -2.7048865305057861e-03 0.0000000000000000e+00  8.0533452376909218e-02 -2.7063699386685909e-03 0.0000000000000000e+00  8.0528821966789468e-02 2.8340629042226278e-03 0.0000000000000000e+00  1.4978208033491333e-01 2.7955305940735543e-03 0.0000000000000000e+00  1.4979279331125644e-01 -2.7455250139729916e-03 0.0000000000000000e+00  1.7272728775718968e-01 -2.7583254560177447e-03 0.0000000000000000e+00  1.7271557167849882e-01 2.7783678148731463e-03 0.0000000000000000e+00  1.5555760486504469e-01 2.1516429137655084e-05 0.0000000000000000e+00  1.4401501009418061e-01 2.8510630876459688e-05 0.0000000000000000e+00  6.3217295590232189e-02 6.6213398396855298e-05 0.0000000000000000e+00  5.1674737669307434e-02 6.4286723036376567e-05 0.0000000000000000e+00  2.8589636782763918e-02 5.0322580257838269e-05 0.0000000000000000e+00  4.0132380738163650e-02 5.9064700072037493e-05 0.0000000000000000e+00  0.0000000000000000e+00 0.0000000000000000e+00 0.0000000000000000e+00  1.7010441328843041e-02 3.7986568101565253e-05 0.0000000000000000e+00  7.4759872419460707e-02 6.5361378289718357e-05 0.0000000000000000e+00  8.6302421747282324e-02 6.2209820668154324e-05 0.0000000000000000e+00  9.7844993096493568e-02 5.7218655604031926e-05 0.0000000000000000e+00  1.0938754761346633e-01 5.0880119081182348e-05 0.0000000000000000e+00  1.2093011260666046e-01 4.3663463555086025e-05 0.0000000000000000e+00  1.3247267091863635e-01 3.6046767995905030e-05 0.0000000000000000e+00  1.6713834654741860e-01 1.5222746638117963e-05 0.0000000000000000e+00  1.8414828537828640e-01 0.0000000000000000e+00 0.0000000000000000e+00  8.2399605045565278e-03 3.0722338261805434e-04 0.0000000000000000e+00  1.7591974756946224e-01 -2.7077616850991855e-04 0.0000000000000000e+00  1.7818334595571614e-01 2.4045206299299206e-03 0.0000000000000000e+00  5.9298659810622604e-03 -2.3472070618417427e-03 0.0000000000000000e+00  5.9894267108035124e-03 2.3917247517593644e-03 0.0000000000000000e+00  1.7819572252892488e-01 -2.3487953243724129e-03 0.0000000000000000e+00  1.8414828537828640e-01 0.0000000000000000e+00 0.0000000000000000e+00  1.6133437207270687e-01 -8.3348110517827848e-04 0.0000000000000000e+00  1.6069550546703942e-01 9.8956008223173857e-04 0.0000000000000000e+00  1.5555485262353302e-01 2.7951078454464540e-03 0.0000000000000000e+00  1.6707508121740500e-01 -2.7858701160498444e-03 0.0000000000000000e+00  1.1516049678213169e-01 -7.9670576043231497e-04 0.0000000000000000e+00  1.1452209371391470e-01 1.0108223473934269e-03 0.0000000000000000e+00  1.0938229465333801e-01 2.8210104661404449e-03 0.0000000000000000e+00  1.2669962934543577e-01 8.8392172720130641e-04 0.0000000000000000e+00  1.2606856531937879e-01 -9.2278888212763972e-04 0.0000000000000000e+00  1.2093587794783757e-01 -2.7265898786774071e-03 0.0000000000000000e+00  1.3246677153064246e-01 2.8062469253424854e-03 0.0000000000000000e+00  1.0361772300842180e-01 -7.8987042871986096e-04 0.0000000000000000e+00  1.0297978040823233e-01 1.0176033872029006e-03 0.0000000000000000e+00  9.7840623952313077e-02 2.8273051888066340e-03 0.0000000000000000e+00  1.2092433971477429e-01 2.8138398477473873e-03 0.0000000000000000e+00  1.0939280811143301e-01 -2.7194169186550037e-03 0.0000000000000000e+00  9.2074828096892367e-02 -7.8415327658702281e-04 0.0000000000000000e+00  9.1437605709729322e-02 1.0232459372714392e-03 0.0000000000000000e+00  8.6299332259532471e-02 2.8322364959093640e-03 0.0000000000000000e+00  9.7849346789347202e-02 -2.7131226372764175e-03 0.0000000000000000e+00  8.0531822903632491e-02 -7.8002199416893239e-04 0.0000000000000000e+00  7.9895554014308368e-02 1.0272693056711719e-03 0.0000000000000000e+00  7.4758431670266107e-02 2.8353565477122950e-03 0.0000000000000000e+00  8.6305521075191627e-02 -2.7081754373004486e-03 0.0000000000000000e+00  6.8988691988330950e-02 -7.7797118982657473e-04 0.0000000000000000e+00  6.8353647455889024e-02 1.0291954206300311e-03 0.0000000000000000e+00  6.3217906220423184e-02 2.8361371870188707e-03 0.0000000000000000e+00  7.4761286973763871e-02 -2.7050690555538155e-03 0.0000000000000000e+00  1.7089154590236851e-02 2.8364667644460674e-03 0.0000000000000000e+00  1.7065806445348185e-02 -2.7621836825214223e-03 0.0000000000000000e+00  2.2811183537622841e-02 -8.0763072219037493e-04 0.0000000000000000e+00  2.2183777605528889e-02 1.0162667414278491e-03 0.0000000000000000e+00  3.4363571560940595e-02 8.9924615468856754e-04 0.0000000000000000e+00  3.3723779715316100e-02 -9.0881022133994303e-04 0.0000000000000000e+00  2.8578653291465986e-02 -2.7235809492269993e-03 0.0000000000000000e+00  4.0137777910956317e-02 2.8288256151148281e-03 0.0000000000000000e+00  2.8596564444252046e-02 2.8229488052098732e-03 0.0000000000000000e+00  5.1671706649999954e-02 -2.7062257830037556e-03 0.0000000000000000e+00  5.7445452564906484e-02 -7.7846666512539694e-04 0.0000000000000000e+00  5.6811865834977132e-02 1.0285380068563838e-03 0.0000000000000000e+00  5.1677765327612445e-02 2.8341553475729787e-03 0.0000000000000000e+00  4.5904836688430525e-02 9.0608593090530775e-04 0.0000000000000000e+00  4.6536832797606370e-02 -9.0069384774279419e-04 0.0000000000000000e+00  4.0126084050614866e-02 -2.7114252017368806e-03 0.0000000000000000e+00  6.3216704086416609e-02 -2.7042624603487641e-03 0.0000000000000000e+00  1.4402108477153333e-01 -2.7415295034766470e-03 0.0000000000000000e+00  1.4978771289414469e-01 -8.1925659493482458e-04 0.0000000000000000e+00  1.4914949102496713e-01 9.8849136448586595e-04 0.0000000000000000e+00  1.4400981426782250e-01 2.7986654152170752e-03 0.0000000000000000e+00  1.3824217687754017e-01 8.7624529312318013e-04 0.0000000000000000e+00  1.3888075025600699e-01 -9.3119609448607946e-04 0.0000000000000000e+00  1.3247856239215783e-01 -2.7341399830513799e-03 0.0000000000000000e+00  1.6706662682795972e-01 2.8172489109219751e-03 0.0000000000000000e+00  1.5556497482357529e-01 -2.7516804258876232e-03 0.0000000000000000e+00  1.7972087863894415e-01 6.7997145257993731e-04 0.0000000000000000e+00  1.7000180040500332e-01 -1.4074489556235995e-03 0.0000000000000000e+00  0.0000000000000000e+00 0.0000000000000000e+00 0.0000000000000000e+00  4.4453115156333099e-03 -6.8691915640243649e-04 0.0000000000000000e+00  1.3093084901634858e-02 1.2504486719099534e-03 0.0000000000000000e+00  1.7000052857461964e-01 1.4359659221166729e-03 0.0000000000000000e+00  1.4138087228804183e-02 -1.3845642257879300e-03 0.0000000000000000e+00  1.7493204369693793e-01 1.4074544112235180e-03 0.0000000000000000e+00  9.2027966055625143e-03 -1.3663244479569985e-03 0.0000000000000000e+00  1.6527719455364578e-01 1.3452048779977114e-03 0.0000000000000000e+00  3.7405000601503182e-03 4.1793887159450834e-04 0.0000000000000000e+00  1.8042128441366159e-01 -4.0717992068290760e-04 0.0000000000000000e+00  1.3379039637208620e-01 1.4202572314734774e-03 0.0000000000000000e+00  1.5386136320211405e-01 1.4090200529889528e-03 0.0000000000000000e+00  4.1455611955905643e-02 1.4447519321732528e-03 0.0000000000000000e+00  6.1524072018566973e-02 1.4511519663713347e-03 0.0000000000000000e+00  2.9271214440507815e-02 -1.3364571646055185e-03 0.0000000000000000e+00  7.3439799985574900e-02 -1.3195662980039508e-03 0.0000000000000000e+00  8.4607292246094978e-02 1.4478660522081821e-03 0.0000000000000000e+00  9.6526436742539315e-02 -1.3272658182370601e-03 0.0000000000000000e+00  1.0769127988742913e-01 1.4369643885409622e-03 0.0000000000000000e+00  1.2161875964599424e-01 -1.3418996844453870e-03 0.0000000000000000e+00  5.0987315300985200e-02 -1.3211097610752863e-03 0.0000000000000000e+00  1.4333220784628103e-01 -1.3560210527362884e-03 0.0000000000000000e+00  0.0000000000000000e+00 0.0000000000000000e+00 0.0000000000000000e+00  1.8414828537828640e-01 0.0000000000000000e+00 0.0000000000000000e+00  1.5688051412086795e-01 -1.3681961572769368e-03 0.0000000000000000e+00  1.4269175677147689e-01 1.4143520653440301e-03 0.0000000000000000e+00  6.4537723637265676e-02 -1.3189226732842547e-03 0.0000000000000000e+00  5.0355806106046189e-02 1.4488605390842316e-03 0.0000000000000000e+00  7.3065587224913645e-02 1.4506969545352935e-03 0.0000000000000000e+00  8.7624651715845631e-02 -1.3234250906280973e-03 0.0000000000000000e+00  9.6149191709583692e-02 1.4431229952692158e-03 0.0000000000000000e+00  1.1071081462842579e-01 -1.3350354748615761e-03 0.0000000000000000e+00  1.2224787629728867e-01 1.4279020758135158e-03 0.0000000000000000e+00  2.9914847607816594e-02 1.4380287342839883e-03 0.0000000000000000e+00  3.8435354663393761e-02 -1.3270922392140140e-03 0.0000000000000000e+00  1.3078186538331646e-01 -1.3479254109289866e-03 0.0000000000000000e+00  1.7739905725792718e-02 1.4531265689265993e-03 0.0000000000000000e+00  1.8740443582662528e-02 -1.4740353899638356e-03 0.0000000000000000e+00  1.6540129039158993e-01 -1.4974196763379974e-03 0.0000000000000000e+00  1.3513233615333778e-01 -1.6578145482285807e-03 0.0000000000000000e+00  4.2785079169223000e-02 -1.6315799482791967e-03 0.0000000000000000e+00  8.9184802313484399e-03 1.6031283510360296e-03 0.0000000000000000e+00  1.7163686019156049e-01 1.4597423211232903e-04 0.0000000000000000e+00  1.7432705133025089e-01 -1.5108462808714632e-03 0.0000000000000000e+00  1.2533205581792845e-02 -1.0614702673867531e-04 0.0000000000000000e+00  1.2958321715125498e-01 1.8450844012205382e-03 0.0000000000000000e+00  3.7250762999469479e-02 1.8641000823031717e-03 0.0000000000000000e+00  1.5267567260186596e-01 -1.7849289448356887e-03 0.0000000000000000e+00  6.0330857608431730e-02 -1.7412463578816832e-03 0.0000000000000000e+00  7.7551711995991326e-02 -1.7168202394400789e-03 0.0000000000000000e+00  8.3418521711990559e-02 -1.7440228151203848e-03 0.0000000000000000e+00  1.0063860750720574e-01 -1.7257837613590908e-03 0.0000000000000000e+00  1.0650518102070569e-01 -1.7546075350531136e-03 0.0000000000000000e+00  1.1802463490042139e-01 1.8114075977161315e-03 0.0000000000000000e+00  2.5694458091272149e-02 1.8195078748547051e-03 0.0000000000000000e+00  1.4690684528424033e-01 -2.7434079353317732e-03 0.0000000000000000e+00  5.4557983720728634e-02 -2.7054678498504565e-03 0.0000000000000000e+00  1.1774623474829504e-01 -1.7614396967032078e-03 0.0000000000000000e+00  2.5396040002108128e-02 -1.7674146292992981e-03 0.0000000000000000e+00  1.4689584387566143e-01 2.7969332959865683e-03 0.0000000000000000e+00  5.4562759248135521e-02 2.8349568507901831e-03 0.0000000000000000e+00  6.6102993261465126e-02 2.8362005193580215e-03 0.0000000000000000e+00  7.7643610250666517e-02 2.8347800398615688e-03 0.0000000000000000e+00  8.9184613677295049e-02 2.8311654161296954e-03 0.0000000000000000e+00  1.0072599869851546e-01 2.8258405574744286e-03 0.0000000000000000e+00  1.1226776769939206e-01 2.8192818811372286e-03 0.0000000000000000e+00  1.5844058186885393e-01 2.7972057806067031e-03 0.0000000000000000e+00  1.8087629561969651e-01 1.6697890344075075e-03 0.0000000000000000e+00  3.2604752281714926e-03 1.7566145428626061e-03 0.0000000000000000e+00  1.8084842329723191e-01 -1.0517997901059980e-03 0.0000000000000000e+00  3.1636983966106904e-03 -1.6185884055082941e-03 0.0000000000000000e+00  2.5703408368933440e-02 7.2112555567893026e-04 0.0000000000000000e+00  1.5225451111161478e-01 4.4603622177550716e-04 0.0000000000000000e+00  5.9915598130256244e-02 4.8832048456039082e-04 0.0000000000000000e+00  8.3000118721072269e-02 4.8568408989141653e-04 0.0000000000000000e+00  1.0608488509552617e-01 4.7517039906204889e-04 0.0000000000000000e+00  1.3625935503873185e-01 -9.8757344018405265e-05 0.0000000000000000e+00  4.3918457044721783e-02 -7.1134167985113206e-05 0.0000000000000000e+00  3.6345835308253770e-02 -7.5747146666754417e-05 0.0000000000000000e+00  7.1457833830570583e-02 4.8822590485479440e-04 0.0000000000000000e+00  9.4542479693232109e-02 4.8117159904966265e-04 0.0000000000000000e+00  1.2868652375436385e-01 -9.3745888576371599e-05 0.0000000000000000e+00  1.1804133015208394e-01 7.1601563549570897e-04 0.0000000000000000e+00  1.6366289570938428e-01 3.5581513532228039e-04 0.0000000000000000e+00  5.3157585303098996e-03 1.3438767320151051e-03 0.0000000000000000e+00  5.4697062126689261e-02 -1.5662327536444367e-03 0.0000000000000000e+00  1.4704221090081515e-01 -1.6044923505387778e-03 0.0000000000000000e+00  1.1142994964759848e-01 1.6959524061843042e-03 0.0000000000000000e+00  1.5760040150998073e-01 1.6718686145222776e-03 0.0000000000000000e+00  7.6804410016500832e-02 1.7112149833158812e-03 0.0000000000000000e+00  9.9887875261052167e-02 1.7024678038809280e-03 0.0000000000000000e+00  8.8346029653201763e-02 1.7077130284719319e-03 0.0000000000000000e+00  6.5263018911509957e-02 1.7124865839937163e-03 0.0000000000000000e+00  1.4032000240369655e-01 -1.8911175082494741e-03 0.0000000000000000e+00  4.7972763325918030e-02 -1.8592679884368141e-03 0.0000000000000000e+00  1.2382158412021317e-01 -2.7284635627411341e-03 0.0000000000000000e+00  3.1465668288422129e-02 -2.7190205288083057e-03 0.0000000000000000e+00  2.0764337564111127e-02 1.9833179932847241e-03 0.0000000000000000e+00  2.6306023568798576e-02 -7.4985746374761489e-04 0.0000000000000000e+00  1.1865150430324166e-01 -7.4946418505939850e-04 0.0000000000000000e+00  1.3089493151754933e-01 9.2152859380046986e-04 0.0000000000000000e+00  3.8558507058248793e-02 9.4240142351747287e-04 0.0000000000000000e+00  6.0912651752787483e-02 -7.1372385599810897e-04 0.0000000000000000e+00  1.5325444529976348e-01 -7.5770160426803801e-04 0.0000000000000000e+00  8.3998860871479786e-02 -7.1677424625658640e-04 0.0000000000000000e+00  1.0708463722864371e-01 -7.2753493723273408e-04 0.0000000000000000e+00  1.7747119675272627e-01 -1.6004771812023750e-03 0.0000000000000000e+00  1.4628098569758838e-01 1.6983729295148118e-03 0.0000000000000000e+00  5.3945321597272944e-02 1.7361522573504163e-03 0.0000000000000000e+00  1.4244591526921216e-02 2.8313589930725079e-03 0.0000000000000000e+00  7.6251887326676732e-02 -8.1214547367974095e-04 0.0000000000000000e+00  9.9337910375112234e-02 -8.2074716453240618e-04 0.0000000000000000e+00  1.2452511734959053e-01 -1.7782831735262054e-03 0.0000000000000000e+00  3.2175377223106344e-02 -1.7671645435628428e-03 0.0000000000000000e+00  3.5456175256236969e-02 -1.7427907480634750e-03 0.0000000000000000e+00  1.2780523013872530e-01 -1.7593350988139682e-03 0.0000000000000000e+00  1.4653534907257770e-01 -6.2059019790712750e-04 0.0000000000000000e+00  5.4193271927849486e-02 -5.8262414998447168e-04 0.0000000000000000e+00  7.8331289186628433e-02 6.4607913676203001e-05 0.0000000000000000e+00  1.0141641559764081e-01 5.5378175561891804e-05 0.0000000000000000e+00  3.4022777558823859e-02 1.8620713167840006e-03 0.0000000000000000e+00  1.2635469828199730e-01 1.8472245339472833e-03 0.0000000000000000e+00  1.1212391868953811e-01 -4.6526151116761872e-04 0.0000000000000000e+00  8.9038426054250080e-02 -4.5331769415423925e-04 0.0000000000000000e+00  6.5952647277943047e-02 -4.4824808998729864e-04 0.0000000000000000e+00  1.5829492264554657e-01 -4.9696924130805068e-04 0.0000000000000000e+00  4.4616679226807308e-02 1.8683997368532539e-03 0.0000000000000000e+00  1.3695033041891211e-01 1.8401703083359977e-03 0.0000000000000000e+00  2.0605035800679898e-02 4.1828921287433068e-05 0.0000000000000000e+00  3.1327061737089192e-02 5.6755188605571048e-04 0.0000000000000000e+00  1.2366442979802997e-01 5.5636634241067314e-04 0.0000000000000000e+00  4.8940061054953132e-02 5.7782356032339130e-04 0.0000000000000000e+00  1.4127870217375152e-01 5.4471003962205543e-04 0.0000000000000000e+00  2.1905175100922894e-02 -1.7799845998246323e-03 0.0000000000000000e+00  1.1387253347323981e-01 -1.7590078927551234e-03 0.0000000000000000e+00  9.0786188275941690e-02 -1.7467393586997214e-03 0.0000000000000000e+00  6.7698845265070626e-02 -1.7410571857129106e-03 0.0000000000000000e+00  1.6004098474902737e-01 -1.7978533131319538e-03 0.0000000000000000e+00  9.4963424854895534e-02 -2.7117385062909909e-03 0.0000000000000000e+00  7.1875174514540618e-02 -2.7046294324360089e-03 0.0000000000000000e+00  4.8792781556909186e-02 2.8331491428042910e-03 0.0000000000000000e+00  1.4112394382633950e-01 2.8005173949053525e-03 0.0000000000000000e+00  9.5096773551584024e-02 -4.6600845632423265e-04 0.0000000000000000e+00  7.2011058138321121e-02 -4.5876921547704846e-04 0.0000000000000000e+00  1.6459786004242438e-01 -5.6538264257600544e-04 0.0000000000000000e+00  3.1481917330345506e-02 2.8237237248865369e-03 0.0000000000000000e+00  1.2380991423196691e-01 2.8119666587807044e-03 0.0000000000000000e+00  1.6420221290806583e-01 2.8087362205483800e-03 0.0000000000000000e+00  1.6240643462579374e-01 1.8569205332185112e-03 0.0000000000000000e+00  4.1736319259106772e-02 -7.4681357763249244e-04 0.0000000000000000e+00  1.3407999336285673e-01 -7.7185875474797142e-04 0.0000000000000000e+00  1.7249760968699007e-01 -7.8360762992850874e-04 0.0000000000000000e+00  8.3414071499785733e-02 2.8331979484566244e-03 0.0000000000000000e+00  8.1605610206344159e-02 1.8862501997432327e-03 0.0000000000000000e+00  6.0332837137775548e-02 2.8359094069999214e-03 0.0000000000000000e+00  5.8523121384204325e-02 1.8882502399442205e-03 0.0000000000000000e+00  1.0649684000525821e-01 2.8226757783287020e-03 0.0000000000000000e+00  1.0468910749115964e-01 1.8761399776348804e-03 0.0000000000000000e+00  1.5266843561790694e-01 2.7947921146528822e-03 0.0000000000000000e+00  1.5085928374762772e-01 1.8473369536732872e-03 0.0000000000000000e+00  9.4955264523671021e-02 2.8286721078528820e-03 0.0000000000000000e+00  9.3147232686871084e-02 1.8819685145359728e-03 0.0000000000000000e+00  7.1873262875159064e-02 2.8357698385611512e-03 0.0000000000000000e+00  7.0064238661575184e-02 1.8885042847755816e-03 0.0000000000000000e+00  2.6800012989941302e-03 -8.6466730199383929e-04 0.0000000000000000e+00  1.8149510894513066e-01 8.1027786486415206e-04 0.0000000000000000e+00  6.5327106280004807e-02 7.6784357664636254e-04 0.0000000000000000e+00  8.8411331676749499e-02 7.6302087693300776e-04 0.0000000000000000e+00  1.5766690008060341e-01 7.2499571045090143e-04 0.0000000000000000e+00  1.4170500836846966e-01 -5