<?xml version="1.0"?>
<VTKFile type="UnstructuredGrid"  version="0.1"  >
<UnstructuredGrid>
<Piece  NumberOfPoints="820" NumberOfCells="1464">
<Points>
<DataArray  type="Float64"  NumberOfComponents="3"  format="ascii">0 0.1 0  0 0 0  1 0 0  1 0.1 0  0.5 0 0  0.5 0.1 0  0.25 0 0  0.25 0.1 0  0.75 0.1 0  0.75 0 0  0.375 0.1 0  0.375 0 0  0.125 0 0  0.125 0.1 0  0.625 0 0  0.625 0.1 0  0.875 0.1 0  0.875 0 0  0.6875 0.1 0  0.6875 0 0  0.5625 0 0  0.5625 0.1 0  0.0625 0.1 0  0.0625 0 0  0.1875 0.1 0  0.1875 0 0  0.3125 0 0  0.3125 0.1 0  0.4375 0.1 0  0.4375 0 0  0.8125 0 0  0.8125 0.1 0  0.9375 0.1 0  0.9375 0 0  0.84375 0.05000000000000001 0  0.78125 0.05 0  0.34375 0.05000000000000001 0  0.28125 0.05 0  0.15625 0.05 0  0.21875 0.05000000000000001 0  0 0.05 0  0.09375 0.05000000000000001 0  0.40625 0.05 0  0.46875 0.05000000000000001 0  0.53125 0.05 0  0.59375 0.05000000000000001 0  0.65625 0.05 0  0.71875 0.05000000000000001 0  0.90625 0.05 0  1 0.05 0  0.046875 0.04453125000000001 0  0.953125 0.05546875 0  0.96875 0 0  0.03125 0.1 0  0.03125 0 0  0.96875 0.1 0  1 0.07500000000000001 0  0.875 0.06523437500000001 0  0.8715625 0.03261718750000001 0  0.84375 0 0  0.90625 0.1 0  0.625 0.06523437500000001 0  0.6215625 0.03261718750000001 0  0.59375 0 0  0.6875 0.034765625 0  0.6840625 0.0673828125 0  0.65625 0.1 0  0.71875 0 0  0.5625 0.06523437500000001 0  0.5590625 0.03261718750000001 0  0.53125 0 0  0.65625 0 0  0.59375 0.1 0  0.5 0.06523437500000001 0  0.4965625 0.03261718750000001 0  0.46875 0 0  0.53125 0.1 0  0.4375 0.06523437500000001 0  0.4340625 0.03261718750000001 0  0.40625 0 0  0.46875 0.1 0  0.375 0.06523437500000001 0  0.3715625 0.03261718750000001 0  0.34375 0 0  0.40625 0.1 0  0.09375 0 0  0.09375 0.1 0  0.125 0.06523437500000001 0  0.1215625 0.03261718750000001 0  0.1875 0.034765625 0  0.1840625 0.0673828125 0  0.15625 0.1 0  0.21875 0 0  0.15625 0 0  0.28125 0.1 0  0.3125 0.06523437500000001 0  0.3090625 0.03261718750000001 0  0.28125 0 0  0.25 0.034765625 0  0.2534375 0.0673828125 0  0.21875 0.1 0  0.34375 0.1 0  0.78125 0.1 0  0.8125 0.06523437500000001 0  0.8090625 0.03261718750000001 0  0.78125 0 0  0.75 0.034765625 0  0.7534375 0.0673828125 0  0.71875 0.1 0  0.90625 0 0  0.84375 0.1 0  0.9740776699029127 0.03143583131067961 0  0.921875 0.075 0  0 0.025 0  0.02592233009708738 0.06856416868932039 0  0.0725 0.028515625 0  0.921875 0.025 0  0.078125 0.07500000000000001 0  0.9484670937186905 0.0242372460741816 0  0.05153290628130947 0.07576275392581842 0  0.8963594872172794 0.02643561701079966 0  0.02229817708333334 0.0375 0  0.9777018229166666 0.06250000000000001 0  0.72590087890625 0.025 0  0.8345789124085022 0.025 0  0.22590087890625 0.025 0  0.3345789124085023 0.025 0  0.15996337890625 0.075 0  0.39909912109375 0.075 0  0.4595789124085023 0.025 0  0.52409912109375 0.075 0  0.5845789124085022 0.025 0  0.65996337890625 0.075 0  0.27753662109375 0.075 0  0.77753662109375 0.075 0  0 0.07500000000000001 0  1 0.025 0  0.85090087890625 0.07500000000000001 0  0.77409912109375 0.025 0  0.35090087890625 0.07500000000000001 0  0.27409912109375 0.025 0  0.3970789124085022 0.025 0  0.47590087890625 0.07500000000000001 0  0.5220789124085022 0.025 0  0.60090087890625 0.07500000000000001 0  0.66340087890625 0.025 0  0.16340087890625 0.025 0  0.2095789124085023 0.07500000000000001 0  0.7095789124085022 0.07500000000000001 0  0.0974991439537346 0.02496950333675565 0  0.1029665898617512 0.07685681883640554 0  0.8970334101382489 0.07685681883640554 0  0.7331321502083639 0.0805418246751822 0  0.2331321502083639 0.08054182467518221 0  0.04967773437499999 0.02050781250000001 0  0.9302821601941748 0.04763728762135922 0  0.9453125 0.07773437499999999 0  0.06981448887637284 0.05242311804773303 0  0.703125 0.0173828125 0  0.203125 0.0173828125 0  0.828125 0.08261718750000001 0  0.328125 0.08261718750000001 0  0.4213608787615672 0.08215505604972331 0  0.453125 0.08261718750000001 0  0.5463608787615671 0.08215505604972331 0  0.578125 0.08261718750000001 0  0.6405370048634059 0.0181271643224308 0  0.1405370048634059 0.0181271643224308 0  0.796875 0.1 0  0.296875 0.1 0  0.6389903131525874 0.08261718750000001 0  0.1389903131525873 0.08261718750000001 0  0.796875 0 0  0.296875 0 0  0.359375 0 0  0.421875 0 0  0.484375 0 0  0.546875 0 0  0.609375 0 0  0.859375 0 0  0.984375 0 0  0.015625 0 0  0.9808265015870887 0.08306437698386088 0  0.015625 0.1 0  0.140615310157384 0.03789815460447876 0  0.8258710430305984 0.04237660226422156 0  0.3258710430305984 0.04237660226422154 0  0.4508710430305984 0.04237660226422154 0  0.5758710430305984 0.04237660226422156 0  0.73925254007477 0.05238802290978471 0  0.23925254007477 0.05238802290978471 0  0.19824745992523 0.05238802290978471 0  0.3883710430305984 0.04237660226422155 0  0.5133710430305984 0.04237660226422155 0  0.69824745992523 0.05238802290978471 0  0.6406153101573839 0.03789815460447876 0  0.8875652355519991 0.04398459561477483 0  0.03011990291140283 0.01954869700666445 0  0.2976228417042103 0.07944206017604956 0  0.7976228417042103 0.07944206017604956 0  0.6048261925064409 0.0202852140350185 0  0.8548261925064409 0.0202852140350185 0  0.4173261925064409 0.02028521403501849 0  0.5423261925064409 0.02028521403501849 0  0.479826192506441 0.02028521403501848 0  0.354826192506441 0.02028521403501848 0  0.7612196085333947 0.08469269433495656 0  0.2612196085333947 0.08469269433495656 0  0.671875 0.1 0  0.171875 0.1 0  0.1138156987561534 0.01531102667280419 0  0.1439032206506398 0.06434174268079966 0  0.6439032206506399 0.06434174268079966 0  0.7102169938849521 0.03403655887996306 0  0.2102169938849521 0.03403655887996306 0  0.331272668838501 0.06407394409179688 0  0.8312726688385009 0.06407394409179688 0  0.456272668838501 0.06407394409179688 0  0.5812726688385009 0.06407394409179688 0  0.9626931005513372 0.08290734481438196 0  0.7935362330470901 0.01983307912641665 0  0.2935362330470901 0.01983307912641665 0  0.078125 0 0  0.4143262322415116 0.06583278773374907 0  0.5393262322415115 0.06583278773374907 0  0.6756954193768612 0.08284197013692297 0  0.1756954193768612 0.08284197013692297 0  0.1934564775596677 0.08246105735569852 0  0.6934564775596677 0.0824610573556985 0  0.7948904737904949 0.06168801049385652 0  0.2948904737904949 0.06168801049385652 0  0.42558837890625 0.05 0  0.55058837890625 0.05 0  0.185643310546875 0.0173828125 0  0.685643310546875 0.0173828125 0  0.6085613945093048 0.05928612183988766 0  0.4835613945093048 0.05928612183988766 0  0.3585613945093048 0.05928612183988766 0  0.8585613945093048 0.05928612183988766 0  0.2430157823768409 0.0173828125 0  0.743015782376841 0.0173828125 0  0.11308837890625 0.05 0  0.1710613945093048 0.04071387816011236 0  0.6710613945093048 0.04071387816011236 0  0.2664386054906952 0.04071387816011236 0  0.7664386054906952 0.04071387816011236 0  0.1200872144236349 0.08261718750000001 0  0.618015782376841 0.08261718750000001 0  0.4930157823768409 0.08261718750000001 0  0.3680157823768409 0.08261718750000001 0  0.868015782376841 0.08261718750000001 0  0.515625 0.1 0  0.390625 0.1 0  0.265625 0 0  0.765625 0 0  0.516365031953596 0.05946768293606444 0  0.3913650319535959 0.05946768293606444 0  0.8926135952226929 0.06033018746614476 0  0.171875 0 0  0.671875 0 0  0.890625 0 0  0.8808652108632187 0.0171078614816925 0  0.2274441083295474 0.06456313374723947 0  0.7274441083295474 0.06456313374723946 0  0.9350285939903868 0.06406852472525566 0  0.453125 0 0  0.4433265752246126 0.01710378970181546 0  0.328125 0 0  0.3183265752246126 0.01710378970181546 0  0.578125 0 0  0.5683265752246126 0.01710378970181545 0  0.828125 0 0  0.8183265752246126 0.01710378970181545 0  0.515625 0 0  0.5058265752246126 0.01710378970181545 0  0.390625 0 0  0.3808265752246126 0.01710378970181545 0  0.01564771141956889 0.08260299286276945 0  0.9843522885804311 0.01739700713723054 0  0.3551736619148977 0.03733645281383641 0  0.4801736619148977 0.03733645281383641 0  0.8551736619148977 0.03733645281383642 0  0.7687346279121444 0.06091681090943113 0  0.2687346279121444 0.06091681090943113 0  0.6687653720878556 0.06091681090943113 0  0.1687653720878556 0.06091681090943113 0  0.6051736619148977 0.03733645281383642 0  0.2924478939734164 0.03697522410746614 0  0.7924478939734163 0.03697522410746614 0  0.8719142286486647 0.04906985056606887 0  0.6274213820068905 0.04848945596065109 0  0.4983341418505795 0.04892020701904073 0  0.3733341418505795 0.04892020701904073 0  0.3108341418505795 0.04892020701904073 0  0.8108341418505794 0.04892020701904073 0  0.6242024164762008 0.01640567476785111 0  0.3848561971730207 0.08410836408489761 0  0.5098561971730207 0.08410836408489761 0  0.2598561971730207 0.01589163591510238 0  0.7598561971730207 0.01589163591510238 0  0.890625 0.1 0  0.9582054159658413 0.03874795528975266 0  0.03565822065430611 0.08308352918541601 0  0.9643417793456939 0.016916470814584 0  0 0.0625 0  0.0168287001921521 0.05388159890776699 0  0.0417945840341587 0.06125204471024735 0  0.9831712998078479 0.04611840109223304 0  0.5622607296296599 0.08116332765030569 0  0.4372607296296599 0.08116332765030566 0  0.046875 0.1 0  0.953125 0 0  0.415919189453125 0.03668247284720479 0  0.540919189453125 0.03668247284720479 0  0.0859375 0.01393925506164327 0  0.109375 0.1 0  0.1338555271916189 0.05216484236021472 0  0.953125 0.1 0  0.140625 0 0  0.640625 0 0  0.546875 0.1 0  0.421875 0.1 0  0.203125 0 0  0.703125 0 0  0.046875 0 0  0.234375 0.1 0  0.734375 0.1 0  0.078125 0.1 0  0.921875 0 0  0.921875 0.1 0  0.828125 0.1 0  0.328125 0.1 0  0.453125 0.1 0  0.578125 0.1 0  0.640625 0.1 0  0.140625 0.1 0  0.984375 0.1 0  0.765625 0.1 0  0.265625 0.1 0  0.109375 0 0  0.203125 0.1 0  0.703125 0.1 0  0.234375 0 0  0.734375 0 0  0.609375 0.1 0  0.484375 0.1 0  0.359375 0.1 0  0.859375 0.1 0  0.03162846341645094 0.04971906156616034 0  0.9677597279973049 0.05078312969016881 0  0.8125319459969864 0.08431483734279674 0  0.3125319459969864 0.08431483734279674 0  0.01533347852251798 0.02378565849770013
[...]
<PointData  Vectors="damage"> 
<DataArray  type="Float64"  Name="damage"  NumberOfComponents="3" format="ascii">0.0000000000000000e+00 0.0000000000000000e+00 0.0000000000000000e+00  0.0000000000000000e+00 0.0000000000000000e+00 0.0000000000000000e+00  2.8330505442813288e-02 0.0000000000000000e+00 0.0000000000000000e+00  2.8330505442813288e-02 0.0000000000000000e+00 0.0000000000000000e+00  1.4164603279416332e-02 4.3538087148961200e-04 0.0000000000000000e+00  1.4165767034021441e-02 -4.1699334185644370e-04 0.0000000000000000e+00  7.0627373032303075e-03 4.3567873850151352e-04 0.0000000000000000e+00  7.0613946491995122e-03 -4.1667320326422647e-04 0.0000000000000000e+00  2.1269198938487808e-02 -4.2121182003887670e-04 0.0000000000000000e+00  2.1267410176667768e-02 4.3114124059449415e-04 0.0000000000000000e+00  1.0613699795653997e-02 -4.1605511184115507e-04 0.0000000000000000e+00  1.0613554791764917e-02 4.3631949636347041e-04 0.0000000000000000e+00  3.5121955217145302e-03 4.3488696510238987e-04 0.0000000000000000e+00  3.5089441203417200e-03 -4.2144064959744596e-04 0.0000000000000000e+00  1.7715887816678863e-02 4.3346260089869622e-04 0.0000000000000000e+00  1.7717598574416692e-02 -4.1891186818339139e-04 0.0000000000000000e+00  2.4820532669872081e-02 -4.2537296905497676e-04 0.0000000000000000e+00  2.4819029952967836e-02 4.3107862156760744e-04 0.0000000000000000e+00  1.9493425773977505e-02 -4.2005416794638868e-04 0.0000000000000000e+00  1.9491616536515193e-02 4.3231868421520170e-04 0.0000000000000000e+00  1.5940215957462534e-02 4.3450735550130482e-04 0.0000000000000000e+00  1.5941712041268954e-02 -4.1786679597626068e-04 0.0000000000000000e+00  1.7557361026349569e-03 -4.2093548855304193e-04 0.0000000000000000e+00  1.7590615003164980e-03 4.3034733533381674e-04 0.0000000000000000e+00  5.2850219889017539e-03 -4.1783276218150620e-04 0.0000000000000000e+00  5.2872883198809536e-03 4.3465213228757385e-04 0.0000000000000000e+00  8.8381190518812321e-03 4.3623654203566131e-04 0.0000000000000000e+00  8.8375775115529590e-03 -4.1613638930856228e-04 0.0000000000000000e+00  1.2389761904139877e-02 -4.1636460594899417e-04 0.0000000000000000e+00  1.2389049533352233e-02 4.3600967757273035e-04 0.0000000000000000e+00  2.3043396974602049e-02 4.3008162985749512e-04 0.0000000000000000e+00  2.3045045124808681e-02 -4.2238846368812419e-04 0.0000000000000000e+00  2.6573428885721492e-02 -4.2435776246425313e-04 0.0000000000000000e+00  2.6571626412076731e-02 4.2744120228819144e-04 0.0000000000000000e+00  2.3931939210006869e-02 3.3102198673598088e-06 0.0000000000000000e+00  2.2156155399104704e-02 4.3862509041007000e-06 0.0000000000000000e+00  9.7257377831126441e-03 1.0186676676458973e-05 0.0000000000000000e+00  7.9499596414319123e-03 9.8902650825388783e-06 0.0000000000000000e+00  4.3984056588867544e-03 7.7419354242916361e-06 0.0000000000000000e+00  6.1742124212559417e-03 9.0868769341736508e-06 0.0000000000000000e+00  0.0000000000000000e+00 0.0000000000000000e+00 0.0000000000000000e+00  2.6169909736681591e-03 5.8440874002442213e-06 0.0000000000000000e+00  1.1501518833763182e-02 1.0055596659975958e-05 0.0000000000000000e+00  1.3277295653428053e-02 9.5707416412745550e-06 0.0000000000000000e+00  1.5053075860999007e-02 8.8028700929481945e-06 0.0000000000000000e+00  1.6828853478994810e-02 7.8277106278978178e-06 0.0000000000000000e+00  1.8604632708716998e-02 6.7174559315796094e-06 0.0000000000000000e+00  2.0380410910559435e-02 5.5456566147845351e-06 0.0000000000000000e+00  2.5713591776525935e-02 2.3419610212719790e-06 0.0000000000000000e+00  2.8330505442813288e-02 0.0000000000000000e+00 0.0000000000000000e+00  1.2676862314702348e-03 4.7265135787394020e-05 0.0000000000000000e+00  2.7064576549148033e-02 -4.1657872078438940e-05 0.0000000000000000e+00  2.7412822454725549e-02 3.6992625075845390e-04 0.0000000000000000e+00  9.1228707400957680e-04 -3.6110877874488250e-04 0.0000000000000000e+00  9.2145026320054120e-04 3.6795765411682600e-04 0.0000000000000000e+00  2.7414726542911522e-02 -3.6135312682651448e-04 0.0000000000000000e+00  2.8330505442813288e-02 0.0000000000000000e+00 0.0000000000000000e+00  2.4820672626570284e-02 -1.2822786233509351e-04 0.0000000000000000e+00  2.4722385456467589e-02 1.5224001265106313e-04 0.0000000000000000e+00  2.3931515788235838e-02 4.3001659160717273e-04 0.0000000000000000e+00  2.5703858648831551e-02 -4.2859540246918519e-04 0.0000000000000000e+00  1.7716999504943334e-02 -1.2257011698956253e-04 0.0000000000000000e+00  1.7618783648294566e-02 1.5551113036824658e-04 0.0000000000000000e+00  1.6828045331282775e-02 4.3400161017547541e-04 0.0000000000000000e+00  1.9492250668528579e-02 1.3598795803100006e-04 0.0000000000000000e+00  1.9395163895289041e-02 -1.4196752032729875e-04 0.0000000000000000e+00  1.8605519684282701e-02 -4.1947536595034267e-04 0.0000000000000000e+00  2.0379503312406538e-02 4.3173029620656640e-04 0.0000000000000000e+00  1.5941188155141808e-02 -1.2151852749534185e-04 0.0000000000000000e+00  1.5843043139728050e-02 1.5655436726200571e-04 0.0000000000000000e+00  1.5052403684971240e-02 4.3497002904719528e-04 0.0000000000000000e+00  1.8603744571503732e-02 4.3289843811501316e-04 0.0000000000000000e+00  1.6829662786374294e-02 -4.1837183363920775e-04 0.0000000000000000e+00  1.4165358168752671e-02 -1.2063896562875406e-04 0.0000000000000000e+00  1.4067323955342971e-02 1.5742245188793400e-04 0.0000000000000000e+00  1.3276820347620384e-02 4.3572869167838289e-04 0.0000000000000000e+00  1.5053745659899564e-02 -4.1740348265789092e-04 0.0000000000000000e+00  1.2389511215943462e-02 -1.2000338371827869e-04 0.0000000000000000e+00  1.2291623694508978e-02 1.5804143164173775e-04 0.0000000000000000e+00  1.1501297180040938e-02 4.3620869964806387e-04 0.0000000000000000e+00  1.3277772473106410e-02 -4.1664237496927942e-04 0.0000000000000000e+00  1.0613644921281683e-02 -1.1968787535791547e-04 0.0000000000000000e+00  1.0515945762444464e-02 1.5833775702002326e-04 0.0000000000000000e+00  9.7258317262189451e-03 4.3632879800292431e-04 0.0000000000000000e+00  1.1501736457502134e-02 -4.1616447008518362e-04 0.0000000000000000e+00  2.6291007061902865e-03 4.3637950222247506e-04 0.0000000000000000e+00  2.6255086838997167e-03 -4.2495133577252249e-04 0.0000000000000000e+00  3.5094128519419726e-03 -1.2425088033697455e-04 0.0000000000000000e+00  3.4128888623890605e-03 1.5634872945044409e-04 0.0000000000000000e+00  5.2867033170677820e-03 1.3834556225979130e-04 0.0000000000000000e+00  5.1882738023563179e-03 -1.3981695712921089e-04 0.0000000000000000e+00  4.3967158909947622e-03 -4.1901245372722107e-04 0.0000000000000000e+00  6.1750427555317443e-03 4.3520394078691051e-04 0.0000000000000000e+00  4.3994714529618549e-03 4.3429981618614338e-04 0.0000000000000000e+00  7.9494933307692178e-03 -4.1634242815440266e-04 0.0000000000000000e+00  8.8377619330625348e-03 -1.1976410232696380e-04 0.0000000000000000e+00  8.7402870515349389e-03 1.5823661643946417e-04 0.0000000000000000e+00  7.9504254350172988e-03 4.3602389962663101e-04 0.0000000000000000e+00  7.0622825674508507e-03 1.3939783552391021e-04 0.0000000000000000e+00  7.1595127380932808e-03 -1.3856828426810482e-04 0.0000000000000000e+00  6.1732437000945875e-03 -4.1714233872873664e-04 0.0000000000000000e+00  9.7256467825256321e-03 -4.1604037851517521e-04 0.0000000000000000e+00  2.2157089964851284e-02 -4.2177376976560875e-04 0.0000000000000000e+00  2.3044263522176100e-02 -1.2603947614379170e-04 0.0000000000000000e+00  2.2946075542302637e-02 1.5207559453631419e-04 0.0000000000000000e+00  2.2155356041203462e-02 4.3056391003342716e-04 0.0000000000000000e+00  2.1268027211929243e-02 1.3480696817282770e-04 0.0000000000000000e+00  2.1366269270154920e-02 -1.4326093761321234e-04 0.0000000000000000e+00  2.0381317291101205e-02 -4.2063692046941136e-04 0.0000000000000000e+00  2.5702557973532256e-02 4.3342290937263588e-04 0.0000000000000000e+00  2.3933073049780811e-02 -4.2333545013653173e-04 0.0000000000000000e+00  2.7649365944452949e-02 1.0461099270461158e-04 0.0000000000000000e+00  2.6154123139231281e-02 -2.1653060855745992e-04 0.0000000000000000e+00  0.0000000000000000e+00 0.0000000000000000e+00 0.0000000000000000e+00  6.8389407932820101e-04 -1.0567987021575907e-04 0.0000000000000000e+00  2.0143207540976702e-03 1.9237671875537964e-04 0.0000000000000000e+00  2.6153927473018399e-02 2.2091783417181382e-04 0.0000000000000000e+00  2.1750903428929495e-03 -2.1300988089044794e-04 0.0000000000000000e+00  2.6912622107221222e-02 2.1653144788055142e-04 0.0000000000000000e+00  1.4158148623942309e-03 -2.1020376122415227e-04 0.0000000000000000e+00  2.5427260700560884e-02 2.0695459661505727e-04 0.0000000000000000e+00  5.7546154771543365e-04 6.4298287937616973e-05 0.0000000000000000e+00  2.7757120679024846e-02 -6.2643064720441493e-05 0.0000000000000000e+00  2.0583137903397868e-02 2.1850111253440959e-04 0.0000000000000000e+00  2.3670978954171387e-02 2.1677231584448211e-04 0.0000000000000000e+00  6.3777864547547138e-03 2.2226952802666846e-04 0.0000000000000000e+00  9.4652418490102988e-03 2.2325414867253369e-04 0.0000000000000000e+00  4.5032637600781224e-03 -2.0560879455468580e-04 0.0000000000000000e+00  1.1298430767011524e-02 -2.0301019969289717e-04 0.0000000000000000e+00  1.3016506499399226e-02 2.2274862341666320e-04 0.0000000000000000e+00  1.4850221037313734e-02 -2.0419474126721977e-04 0.0000000000000000e+00  1.6567889213450631e-02 2.2107144439093931e-04 0.0000000000000000e+00  1.8710578407076031e-02 -2.0644610529926092e-04 0.0000000000000000e+00  7.8442023539977198e-03 -2.0324765555002490e-04 0.0000000000000000e+00  2.2051108899427851e-02 -2.0861862349786045e-04 0.0000000000000000e+00  0.0000000000000000e+00 0.0000000000000000e+00 0.0000000000000000e+00  2.8330505442813285e-02 0.0000000000000000e+00 0.0000000000000000e+00  2.4135463710902763e-02 -2.1049171650411894e-04 0.0000000000000000e+00  2.1952577964842596e-02 2.1759262543757363e-04 0.0000000000000000e+00  9.9288805595793336e-03 -2.0291118050525084e-04 0.0000000000000000e+00  7.7470470932378731e-03 2.2290162139759257e-04 0.0000000000000000e+00  1.1240859573063637e-02 2.2318414685160292e-04 0.0000000000000000e+00  1.3480715648591629e-02 -2.0360386009661048e-04 0.0000000000000000e+00  1.4792183339935953e-02 2.2201892234913109e-04 0.0000000000000000e+00  1.7032433019757803e-02 -2.0539007305560324e-04 0.0000000000000000e+00  1.8807365584198262e-02 2.1967724243287650e-04 0.0000000000000000e+00  4.6022842473564000e-03 2.2123518988985359e-04 0.0000000000000000e+00  5.9131314866759611e-03 -2.0416803680214232e-04 0.0000000000000000e+00  2.0120286982048683e-02 -2.0737314014288935e-04 0.0000000000000000e+00  2.7292162655065720e-03 2.2355793368101904e-04 0.0000000000000000e+00  2.8831451665634637e-03 -2.2677467537904710e-04 0.0000000000000000e+00  2.5446352367936922e-02 -2.3037225789812927e-04 0.0000000000000000e+00  2.0789590177436576e-02 -2.5504839203513647e-04 0.0000000000000000e+00  6.5823198721881495e-03 -2.5101229973524547e-04 0.0000000000000000e+00  1.3720738817459140e-03 2.4663513092862101e-04 0.0000000000000000e+00  2.6405670798701614e-02 2.2457574171143971e-05 0.0000000000000000e+00  2.6819546358500139e-02 -2.3243788936482793e-04 0.0000000000000000e+00  1.9281854741219761e-03 -1.6330311805947796e-05 0.0000000000000000e+00  1.9935879561731533e-02 2.8385913864934132e-04 0.0000000000000000e+00  5.7308866153029971e-03 2.8678462804665385e-04 0.0000000000000000e+00  2.3488565015671682e-02 -2.7460445305161859e-04 0.0000000000000000e+00  9.2816704012971835e-03 -2.6788405505870111e-04 0.0000000000000000e+00  1.1931032614767894e-02 -2.6412619068306976e-04 0.0000000000000000e+00  1.2833618724921621e-02 -2.6831120232619180e-04 0.0000000000000000e+00  1.5482862693416264e-02 -2.6550519405522249e-04 0.0000000000000000e+00  1.6385412464723945e-02 -2.6993962077738064e-04 0.0000000000000000e+00  1.8157636138526369e-02 2.7867809195635662e-04 0.0000000000000000e+00  3.9529935525034077e-03 2.7992428843919280e-04 0.0000000000000000e+00  2.2601053120652359e-02 -4.2206275928178486e-04 0.0000000000000000e+00  8.3935359570351722e-03 -4.1622582305389570e-04 0.0000000000000000e+00  1.8114805345891535e-02 -2.7099072256969861e-04 0.0000000000000000e+00  3.9070830772474007e-03 -2.7190994296911536e-04 0.0000000000000000e+00  2.2599360596255606e-02 4.3029743015180659e-04 0.0000000000000000e+00  8.3942706535593097e-03 4.3614720781389441e-04 0.0000000000000000e+00  1.0169691270994635e-02 4.3633854143971569e-04 0.0000000000000000e+00  1.1945170807794852e-02 4.3612000613256821e-04 0.0000000000000000e+00  1.3720709796506931e-02 4.3556391017381926e-04 0.0000000000000000e+00  1.5496307492079297e-02 4.3474470114993280e-04 0.0000000000000000e+00  1.7271964261444936e-02 4.3373567402113646e-04 0.0000000000000000e+00  2.4375474133669833e-02 4.3033935086259333e-04 0.0000000000000000e+00  2.7827122403030223e-02 2.5689062067808327e-04 0.0000000000000000e+00  5.0161157356484547e-04 2.7024839120963197e-04 0.0000000000000000e+00  2.7822834353420287e-02 -1.6181535232399395e-04 0.0000000000000000e+00  4.8672283024779752e-04 -2.4901360084742945e-04 0.0000000000000000e+00  3.9543705182974514e-03 1.1094239318138141e-04 0.0000000000000000e+00  2.3423770940248421e-02 6.8620957196260192e-05 0.0000000000000000e+00  9.2177843277317286e-03 7.5126228393927399e-05 0.0000000000000000e+00  1.2769249034011115e-02 7.4720629214083807e-05 0.0000000000000000e+00  1.6320751553157872e-02 7.3103138317259564e-05 0.0000000000000000e+00  2.0962977698266435e-02 -1.5193437541259687e-05 0.0000000000000000e+00  6.7566856991879637e-03 -1.0943718151540653e-05 0.0000000000000000e+00  5.5916669705005778e-03 -1.1653407179488506e-05 0.0000000000000000e+00  1.0993512897010853e-02 7.5111677669986593e-05 0.0000000000000000e+00  1.4544996875881863e-02 7.4026399853814216e-05 0.0000000000000000e+00  1.9797926731440593e-02 -1.4422444396334276e-05 0.0000000000000000e+00  1.8160204638782144e-02 1.1015625161475069e-04 0.0000000000000000e+00  2.5178907032212965e-02 5.4740790049608032e-05 0.0000000000000000e+00  8.1780900466306200e-04 2.0675026646386295e-04 0.0000000000000000e+00  8.4149326348752652e-03 -2.4095888517604725e-04 0.0000000000000000e+00  2.2621878600125413e-02 -2.4684497700593793e-04 0.0000000000000000e+00  1.7143069176553616e-02 2.6091575479760990e-04 0.0000000000000000e+00  2.4246215616920100e-02 2.5721055608037566e-04 0.0000000000000000e+00  1.1816063079461670e-02 2.6326384358707754e-04 0.0000000000000000e+00  1.5367365424777249e-02 2.6191812367400911e-04 0.0000000000000000e+00  1.3591696869723346e-02 2.6272508130339403e-04 0.0000000000000000e+00  1.0040464447924604e-02 2.6345947446059165e-04 0.0000000000000000e+00  2.1587692677491790e-02 -2.9094115511527329e-04 0.0000000000000000e+00  7.3804251270643091e-03 -2.8604122899026160e-04 0.0000000000000000e+00  1.9049474480032792e-02 -4.1976362503706711e-04 0.0000000000000000e+00  4.8408720443726292e-03 -4.1831085058588279e-04 0.0000000000000000e+00  3.1945134714017115e-03 3.0512584512073203e-04 0.0000000000000000e+00  4.0470805490459309e-03 -1.1536268673039455e-04 0.0000000000000000e+00  1.8254077585114100e-02 -1.1530218231680487e-04 0.0000000000000000e+00  2.0137681771930666e-02 1.4177362981548667e-04 0.0000000000000000e+00  5.9320780089613528e-03 1.4498483438731604e-04 0.0000000000000000e+00  9.3711771927365330e-03 -1.0980367015353525e-04 0.0000000000000000e+00  2.3577606969194378e-02 -1.1656947757967146e-04 0.0000000000000000e+00  1.2922901672535353e-02 -1.1027296096253144e-04 0.0000000000000000e+00  1.6474559573637488e-02 -1.1192845188193625e-04 0.0000000000000000e+00  2.7303261038880963e-02 -2.4622725864650820e-04 0.0000000000000000e+00  2.2504767030398210e-02 2.6128814300230573e-04 0.0000000000000000e+00  8.2992802457342949e-03 2.6710034728469990e-04 0.0000000000000000e+00  2.1914756195263426e-03 4.3559369124192683e-04 0.0000000000000000e+00  1.1731059588719495e-02 -1.2494545748917133e-04 0.0000000000000000e+00  1.5282755442324955e-02 -1.2626879454342659e-04 0.0000000000000000e+00  1.9157710361475462e-02 -2.7358202669630779e-04 0.0000000000000000e+00  4.9500580343240482e-03 -2.7187146824042671e-04 0.0000000000000000e+00  5.4547961932672213e-03 -2.6812165354821497e-04 0.0000000000000000e+00  1.9662343098265426e-02 -2.7066693827904081e-04 0.0000000000000000e+00  2.2543899857319635e-02 -9.5475415062606914e-05 0.0000000000000000e+00  8.3374264504383778e-03 -8.9634484612975863e-05 0.0000000000000000e+00  1.2050967567173602e-02 9.9396790271276090e-06 0.0000000000000000e+00  1.5602525476560119e-02 8.5197193172348175e-06 0.0000000000000000e+00  5.2342734705882856e-03 2.8647251027447205e-04 0.0000000000000000e+00  1.9439184351076513e-02 2.8418838983807084e-04 0.0000000000000000e+00  1.7249833644544320e-02 -7.1578694025763506e-05 0.0000000000000000e+00  1.3698219392961548e-02 -6.9741183716016760e-05 0.0000000000000000e+00  1.0146561119683544e-02 -6.8961244613411360e-05 0.0000000000000000e+00  2.4353065022391776e-02 -7.6456806355058166e-05 0.0000000000000000e+00  6.8641044964318949e-03 2.8744611336205543e-04 0.0000000000000000e+00  2.1069281602909547e-02 2.8310312435941718e-04 0.0000000000000000e+00  3.1700055077969057e-03 6.4352186596098746e-06 0.0000000000000000e+00  4.8195479595521820e-03 8.7315674777811562e-05 0.0000000000000000e+00  1.9025296892004610e-02 8.5594821909363615e-05 0.0000000000000000e+00  7.5292401623004799e-03 8.8895932357462918e-05 0.0000000000000000e+00  2.1735184949807928e-02 8.3801544557270444e-05 0.0000000000000000e+00  3.3700269386035186e-03 -2.7384378458839898e-04 0.0000000000000000e+00  1.7518851303575344e-02 -2.7061659888538009e-04 0.0000000000000000e+00  1.3967105888606409e-02 -2.6872913210762990e-04 0.0000000000000000e+00  1.0415206963857015e-02 -2.6785495164812075e-04 0.0000000000000000e+00  2.4621689961388821e-02 -2.7659281740488795e-04 0.0000000000000000e+00  1.4609757669983925e-02 -4.1719053942936441e-04 0.0000000000000000e+00  1.1057719156083171e-02 -4.1609683575936701e-04 0.0000000000000000e+00  7.5065817779860298e-03 4.3586909889298503e-04 0.0000000000000000e+00  2.1711375973283001e-02 4.3084882998547071e-04 0.0000000000000000e+00  1.4630272854089847e-02 -7.1693608665246547e-05 0.0000000000000000e+00  1.1078624328972478e-02 -7.0579879304143389e-05 0.0000000000000000e+00  2.5322747698834514e-02 -8.6981945011668405e-05 0.0000000000000000e+00  4.8433718969762328e-03 4.3441903459793814e-04 0.0000000000000000e+00  1.9047679112610287e-02 4.3261025519706031e-04 0.0000000000000000e+00  2.5261878908933194e-02 4.3211326469977889e-04 0.0000000000000000e+00  2.4985605327045177e-02 2.8568008203364335e-04 0.0000000000000000e+00  6.4209721937087301e-03 -1.1489439655883015e-04 0.0000000000000000e+00  2.0627691286593336e-02 -1.1874750073042680e-04 0.0000000000000000e+00  2.6538093797998475e-02 -1.2055501998898745e-04 0.0000000000000000e+00  1.2832934076890113e-02 4.3587660745488530e-04 0.0000000000000000e+00  1.2554709262514485e-02 2.9019233842205567e-04 0.0000000000000000e+00  9.2819749442731563e-03 4.3629375492308539e-04 0.0000000000000000e+00  9.0035571360314280e-03 2.9050003691451600e-04 0.0000000000000000e+00  1.6384129231578184e-02 4.3425781205059188e-04 0.0000000000000000e+00  1.6106016537101482e-02 2.8863691963615715e-04 0.0000000000000000e+00  2.3487451633524142e-02 4.2996801763893125e-04 0.0000000000000000e+00  2.3209120576558103e-02 2.8420568518053405e-04 0.0000000000000000e+00  1.4608502234410924e-02 4.3518032428507900e-04 0.0000000000000000e+00  1.4330343490287861e-02 2.8953361762094020e-04 0.0000000000000000e+00  1.1057425057716777e-02 4.3627228285558127e-04 0.0000000000000000e+00  1.0779113640242336e-02 2.9053912073472357e-04 0.0000000000000000e+00  4.1230789215294250e-04 -1.3302573876828276e-04 0.0000000000000000e+00  2.7922324453097013e-02 1.2465813305602498e-04 0.0000000000000000e+00  1.0050324043077655e-02 1.1812978102253642e-04 0.0000000000000000e+00  1.3601743334884536e-02 1.1738782722048259e-04 0.0000000000000000e+00  2.4256446166246670e-02 1.1153780160785899e-04 0.0000000000000000e+00  2.1800770518226101e-02 -8