<?xml version="1.0"?>
<VTKFile type="UnstructuredGrid"  version="0.1"  >
<UnstructuredGrid>
<Piece  NumberOfPoints="820" NumberOfCells="1464">
<Points>
<DataArray  type="Float64"  NumberOfComponents="3"  format="ascii">0 0.1 0  0 0 0  1 0 0  1 0.1 0  0.5 0 0  0.5 0.1 0  0.25 0 0  0.25 0.1 0  0.75 0.1 0  0.75 0 0  0.375 0.1 0  0.375 0 0  0.125 0 0  0.125 0.1 0  0.625 0 0  0.625 0.1 0  0.875 0.1 0  0.875 0 0  0.6875 0.1 0  0.6875 0 0  0.5625 0 0  0.5625 0.1 0  0.0625 0.1 0  0.0625 0 0  0.1875 0.1 0  0.1875 0 0  0.3125 0 0  0.3125 0.1 0  0.4375 0.1 0  0.4375 0 0  0.8125 0 0  0.8125 0.1 0  0.9375 0.1 0  0.9375 0 0  0.84375 0.05000000000000001 0  0.78125 0.05 0  0.34375 0.05000000000000001 0  0.28125 0.05 0  0.15625 0.05 0  0.21875 0.05000000000000001 0  0 0.05 0  0.09375 0.05000000000000001 0  0.40625 0.05 0  0.46875 0.05000000000000001 0  0.53125 0.05 0  0.59375 0.05000000000000001 0  0.65625 0.05 0  0.71875 0.05000000000000001 0  0.90625 0.05 0  1 0.05 0  0.046875 0.04453125000000001 0  0.953125 0.05546875 0  0.96875 0 0  0.03125 0.1 0  0.03125 0 0  0.96875 0.1 0  1 0.07500000000000001 0  0.875 0.06523437500000001 0  0.8715625 0.03261718750000001 0  0.84375 0 0  0.90625 0.1 0  0.625 0.06523437500000001 0  0.6215625 0.03261718750000001 0  0.59375 0 0  0.6875 0.034765625 0  0.6840625 0.0673828125 0  0.65625 0.1 0  0.71875 0 0  0.5625 0.06523437500000001 0  0.5590625 0.03261718750000001 0  0.53125 0 0  0.65625 0 0  0.59375 0.1 0  0.5 0.06523437500000001 0  0.4965625 0.03261718750000001 0  0.46875 0 0  0.53125 0.1 0  0.4375 0.06523437500000001 0  0.4340625 0.03261718750000001 0  0.40625 0 0  0.46875 0.1 0  0.375 0.06523437500000001 0  0.3715625 0.03261718750000001 0  0.34375 0 0  0.40625 0.1 0  0.09375 0 0  0.09375 0.1 0  0.125 0.06523437500000001 0  0.1215625 0.03261718750000001 0  0.1875 0.034765625 0  0.1840625 0.0673828125 0  0.15625 0.1 0  0.21875 0 0  0.15625 0 0  0.28125 0.1 0  0.3125 0.06523437500000001 0  0.3090625 0.03261718750000001 0  0.28125 0 0  0.25 0.034765625 0  0.2534375 0.0673828125 0  0.21875 0.1 0  0.34375 0.1 0  0.78125 0.1 0  0.8125 0.06523437500000001 0  0.8090625 0.03261718750000001 0  0.78125 0 0  0.75 0.034765625 0  0.7534375 0.0673828125 0  0.71875 0.1 0  0.90625 0 0  0.84375 0.1 0  0.9740776699029127 0.03143583131067961 0  0.921875 0.075 0  0 0.025 0  0.02592233009708738 0.06856416868932039 0  0.0725 0.028515625 0  0.921875 0.025 0  0.078125 0.07500000000000001 0  0.9484670937186905 0.0242372460741816 0  0.05153290628130947 0.07576275392581842 0  0.8963594872172794 0.02643561701079966 0  0.02229817708333334 0.0375 0  0.9777018229166666 0.06250000000000001 0  0.72590087890625 0.025 0  0.8345789124085022 0.025 0  0.22590087890625 0.025 0  0.3345789124085023 0.025 0  0.15996337890625 0.075 0  0.39909912109375 0.075 0  0.4595789124085023 0.025 0  0.52409912109375 0.075 0  0.5845789124085022 0.025 0  0.65996337890625 0.075 0  0.27753662109375 0.075 0  0.77753662109375 0.075 0  0 0.07500000000000001 0  1 0.025 0  0.85090087890625 0.07500000000000001 0  0.77409912109375 0.025 0  0.35090087890625 0.07500000000000001 0  0.27409912109375 0.025 0  0.3970789124085022 0.025 0  0.47590087890625 0.07500000000000001 0  0.5220789124085022 0.025 0  0.60090087890625 0.07500000000000001 0  0.66340087890625 0.025 0  0.16340087890625 0.025 0  0.2095789124085023 0.07500000000000001 0  0.7095789124085022 0.07500000000000001 0  0.0974991439537346 0.02496950333675565 0  0.1029665898617512 0.07685681883640554 0  0.8970334101382489 0.07685681883640554 0  0.7331321502083639 0.0805418246751822 0  0.2331321502083639 0.08054182467518221 0  0.04967773437499999 0.02050781250000001 0  0.9302821601941748 0.04763728762135922 0  0.9453125 0.07773437499999999 0  0.06981448887637284 0.05242311804773303 0  0.703125 0.0173828125 0  0.203125 0.0173828125 0  0.828125 0.08261718750000001 0  0.328125 0.08261718750000001 0  0.4213608787615672 0.08215505604972331 0  0.453125 0.08261718750000001 0  0.5463608787615671 0.08215505604972331 0  0.578125 0.08261718750000001 0  0.6405370048634059 0.0181271643224308 0  0.1405370048634059 0.0181271643224308 0  0.796875 0.1 0  0.296875 0.1 0  0.6389903131525874 0.08261718750000001 0  0.1389903131525873 0.08261718750000001 0  0.796875 0 0  0.296875 0 0  0.359375 0 0  0.421875 0 0  0.484375 0 0  0.546875 0 0  0.609375 0 0  0.859375 0 0  0.984375 0 0  0.015625 0 0  0.9808265015870887 0.08306437698386088 0  0.015625 0.1 0  0.140615310157384 0.03789815460447876 0  0.8258710430305984 0.04237660226422156 0  0.3258710430305984 0.04237660226422154 0  0.4508710430305984 0.04237660226422154 0  0.5758710430305984 0.04237660226422156 0  0.73925254007477 0.05238802290978471 0  0.23925254007477 0.05238802290978471 0  0.19824745992523 0.05238802290978471 0  0.3883710430305984 0.04237660226422155 0  0.5133710430305984 0.04237660226422155 0  0.69824745992523 0.05238802290978471 0  0.6406153101573839 0.03789815460447876 0  0.8875652355519991 0.04398459561477483 0  0.03011990291140283 0.01954869700666445 0  0.2976228417042103 0.07944206017604956 0  0.7976228417042103 0.07944206017604956 0  0.6048261925064409 0.0202852140350185 0  0.8548261925064409 0.0202852140350185 0  0.4173261925064409 0.02028521403501849 0  0.5423261925064409 0.02028521403501849 0  0.479826192506441 0.02028521403501848 0  0.354826192506441 0.02028521403501848 0  0.7612196085333947 0.08469269433495656 0  0.2612196085333947 0.08469269433495656 0  0.671875 0.1 0  0.171875 0.1 0  0.1138156987561534 0.01531102667280419 0  0.1439032206506398 0.06434174268079966 0  0.6439032206506399 0.06434174268079966 0  0.7102169938849521 0.03403655887996306 0  0.2102169938849521 0.03403655887996306 0  0.331272668838501 0.06407394409179688 0  0.8312726688385009 0.06407394409179688 0  0.456272668838501 0.06407394409179688 0  0.5812726688385009 0.06407394409179688 0  0.9626931005513372 0.08290734481438196 0  0.7935362330470901 0.01983307912641665 0  0.2935362330470901 0.01983307912641665 0  0.078125 0 0  0.4143262322415116 0.06583278773374907 0  0.5393262322415115 0.06583278773374907 0  0.6756954193768612 0.08284197013692297 0  0.1756954193768612 0.08284197013692297 0  0.1934564775596677 0.08246105735569852 0  0.6934564775596677 0.0824610573556985 0  0.7948904737904949 0.06168801049385652 0  0.2948904737904949 0.06168801049385652 0  0.42558837890625 0.05 0  0.55058837890625 0.05 0  0.185643310546875 0.0173828125 0  0.685643310546875 0.0173828125 0  0.6085613945093048 0.05928612183988766 0  0.4835613945093048 0.05928612183988766 0  0.3585613945093048 0.05928612183988766 0  0.8585613945093048 0.05928612183988766 0  0.2430157823768409 0.0173828125 0  0.743015782376841 0.0173828125 0  0.11308837890625 0.05 0  0.1710613945093048 0.04071387816011236 0  0.6710613945093048 0.04071387816011236 0  0.2664386054906952 0.04071387816011236 0  0.7664386054906952 0.04071387816011236 0  0.1200872144236349 0.08261718750000001 0  0.618015782376841 0.08261718750000001 0  0.4930157823768409 0.08261718750000001 0  0.3680157823768409 0.08261718750000001 0  0.868015782376841 0.08261718750000001 0  0.515625 0.1 0  0.390625 0.1 0  0.265625 0 0  0.765625 0 0  0.516365031953596 0.05946768293606444 0  0.3913650319535959 0.05946768293606444 0  0.8926135952226929 0.06033018746614476 0  0.171875 0 0  0.671875 0 0  0.890625 0 0  0.8808652108632187 0.0171078614816925 0  0.2274441083295474 0.06456313374723947 0  0.7274441083295474 0.06456313374723946 0  0.9350285939903868 0.06406852472525566 0  0.453125 0 0  0.4433265752246126 0.01710378970181546 0  0.328125 0 0  0.3183265752246126 0.01710378970181546 0  0.578125 0 0  0.5683265752246126 0.01710378970181545 0  0.828125 0 0  0.8183265752246126 0.01710378970181545 0  0.515625 0 0  0.5058265752246126 0.01710378970181545 0  0.390625 0 0  0.3808265752246126 0.01710378970181545 0  0.01564771141956889 0.08260299286276945 0  0.9843522885804311 0.01739700713723054 0  0.3551736619148977 0.03733645281383641 0  0.4801736619148977 0.03733645281383641 0  0.8551736619148977 0.03733645281383642 0  0.7687346279121444 0.06091681090943113 0  0.2687346279121444 0.06091681090943113 0  0.6687653720878556 0.06091681090943113 0  0.1687653720878556 0.06091681090943113 0  0.6051736619148977 0.03733645281383642 0  0.2924478939734164 0.03697522410746614 0  0.7924478939734163 0.03697522410746614 0  0.8719142286486647 0.04906985056606887 0  0.6274213820068905 0.04848945596065109 0  0.4983341418505795 0.04892020701904073 0  0.3733341418505795 0.04892020701904073 0  0.3108341418505795 0.04892020701904073 0  0.8108341418505794 0.04892020701904073 0  0.6242024164762008 0.01640567476785111 0  0.3848561971730207 0.08410836408489761 0  0.5098561971730207 0.08410836408489761 0  0.2598561971730207 0.01589163591510238 0  0.7598561971730207 0.01589163591510238 0  0.890625 0.1 0  0.9582054159658413 0.03874795528975266 0  0.03565822065430611 0.08308352918541601 0  0.9643417793456939 0.016916470814584 0  0 0.0625 0  0.0168287001921521 0.05388159890776699 0  0.0417945840341587 0.06125204471024735 0  0.9831712998078479 0.04611840109223304 0  0.5622607296296599 0.08116332765030569 0  0.4372607296296599 0.08116332765030566 0  0.046875 0.1 0  0.953125 0 0  0.415919189453125 0.03668247284720479 0  0.540919189453125 0.03668247284720479 0  0.0859375 0.01393925506164327 0  0.109375 0.1 0  0.1338555271916189 0.05216484236021472 0  0.953125 0.1 0  0.140625 0 0  0.640625 0 0  0.546875 0.1 0  0.421875 0.1 0  0.203125 0 0  0.703125 0 0  0.046875 0 0  0.234375 0.1 0  0.734375 0.1 0  0.078125 0.1 0  0.921875 0 0  0.921875 0.1 0  0.828125 0.1 0  0.328125 0.1 0  0.453125 0.1 0  0.578125 0.1 0  0.640625 0.1 0  0.140625 0.1 0  0.984375 0.1 0  0.765625 0.1 0  0.265625 0.1 0  0.109375 0 0  0.203125 0.1 0  0.703125 0.1 0  0.234375 0 0  0.734375 0 0  0.609375 0.1 0  0.484375 0.1 0  0.359375 0.1 0  0.859375 0.1 0  0.03162846341645094 0.04971906156616034 0  0.9677597279973049 0.05078312969016881 0  0.8125319459969864 0.08431483734279674 0  0.3125319459969864 0.08431483734279674 0  0.01533347852251798 0.02378565849770013
[...]
<PointData  Vectors="damage"> 
<DataArray  type="Float64"  Name="damage"  NumberOfComponents="3" format="ascii">0.0000000000000000e+00 0.0000000000000000e+00 0.0000000000000000e+00  0.0000000000000000e+00 0.0000000000000000e+00 0.0000000000000000e+00  1.4165252721406646e-01 0.0000000000000000e+00 0.0000000000000000e+00  1.4165252721406646e-01 0.0000000000000000e+00 0.0000000000000000e+00  7.0823016397081689e-02 2.1769043574477206e-03 0.0000000000000000e+00  7.0828835170107268e-02 -2.0849667092825604e-03 0.0000000000000000e+00  3.5313686516151487e-02 2.1783936925074011e-03 0.0000000000000000e+00  3.5306973245997637e-02 -2.0833660163213055e-03 0.0000000000000000e+00  1.0634599469243901e-01 -2.1060591001946130e-03 0.0000000000000000e+00  1.0633705088333888e-01 2.1557062029722448e-03 0.0000000000000000e+00  5.3068498978270040e-02 -2.0802755592060551e-03 0.0000000000000000e+00  5.3067773958824588e-02 2.1815974818170810e-03 0.0000000000000000e+00  1.7560977608572628e-02 2.1744348255118930e-03 0.0000000000000000e+00  1.7544720601708648e-02 -2.1072032479872880e-03 0.0000000000000000e+00  8.8579439083394371e-02 2.1673130044931603e-03 0.0000000000000000e+00  8.8587992872083493e-02 -2.0945593409172699e-03 0.0000000000000000e+00  1.2410266334936045e-01 -2.1268648452750106e-03 0.0000000000000000e+00  1.2409514976483922e-01 2.1553931078379311e-03 0.0000000000000000e+00  9.7467128869887509e-02 -2.1002708397322282e-03 0.0000000000000000e+00  9.7458082682576011e-02 2.1615934210757401e-03 0.0000000000000000e+00  7.9701079787312751e-02 2.1725367775061771e-03 0.0000000000000000e+00  7.9708560206344786e-02 -2.0893339798816433e-03 0.0000000000000000e+00  8.7786805131748087e-03 -2.1046774427652313e-03 0.0000000000000000e+00  8.7953075015824774e-03 2.1517366766690658e-03 0.0000000000000000e+00  2.6425109944508827e-02 -2.0891638109076429e-03 0.0000000000000000e+00  2.6436441599404746e-02 2.1732606614377646e-03 0.0000000000000000e+00  4.4190595259406135e-02 2.1811827101780742e-03 0.0000000000000000e+00  4.4187887557764836e-02 -2.0806819465430462e-03 0.0000000000000000e+00  6.1948809520699435e-02 -2.0818230297452835e-03 0.0000000000000000e+00  6.1945247666761155e-02 2.1800483878633417e-03 0.0000000000000000e+00  1.1521698487301037e-01 2.1504081492873107e-03 0.0000000000000000e+00  1.1522522562404339e-01 -2.1119423184408018e-03 0.0000000000000000e+00  1.3286714442860748e-01 -2.1217888123213325e-03 0.0000000000000000e+00  1.3285813206038372e-01 2.1372060114409094e-03 0.0000000000000000e+00  1.1965969605003433e-01 1.6551099336652600e-05 0.0000000000000000e+00  1.1078077699552358e-01 2.1931254520292141e-05 0.0000000000000000e+00  4.8628688915563240e-02 5.0933383382035803e-05 0.0000000000000000e+00  3.9749798207159577e-02 4.9451325412490158e-05 0.0000000000000000e+00  2.1992028294433787e-02 3.8709677121376715e-05 0.0000000000000000e+00  3.0871062106279736e-02 4.5434384670727860e-05 0.0000000000000000e+00  0.0000000000000000e+00 0.0000000000000000e+00 0.0000000000000000e+00  1.3084954868340812e-02 2.9220437001185606e-05 0.0000000000000000e+00  5.7507594168815936e-02 5.0277983299588034e-05 0.0000000000000000e+00  6.6386478267140281e-02 4.7853708206029605e-05 0.0000000000000000e+00  7.5265379304995078e-02 4.4014350464397800e-05 0.0000000000000000e+00  8.4144267394974090e-02 3.9138553139147669e-05 0.0000000000000000e+00  9.3023163543585002e-02 3.3587279657595410e-05 0.0000000000000000e+00  1.0190205455279716e-01 2.7728283073654862e-05 0.0000000000000000e+00  1.2856795888262973e-01 1.1709805106267540e-05 0.0000000000000000e+00  1.4165252721406646e-01 0.0000000000000000e+00 0.0000000000000000e+00  6.3384311573511775e-03 2.3632567893695918e-04 0.0000000000000000e+00  1.3532288274574017e-01 -2.0828936039223985e-04 0.0000000000000000e+00  1.3706411227362780e-01 1.8496312537922481e-03 0.0000000000000000e+00  4.5614353700478994e-03 -1.8055438937244225e-03 0.0000000000000000e+00  4.6072513160026994e-03 1.8397882705841237e-03 0.0000000000000000e+00  1.3707363271455761e-01 -1.8067656341326111e-03 0.0000000000000000e+00  1.4165252721406646e-01 0.0000000000000000e+00 0.0000000000000000e+00  1.2410336313285146e-01 -6.4113931167557672e-04 0.0000000000000000e+00  1.2361192728233801e-01 7.6120006325520637e-04 0.0000000000000000e+00  1.1965757894117930e-01 2.1500829580357308e-03 0.0000000000000000e+00  1.2851929324415778e-01 -2.1429770123460074e-03 0.0000000000000000e+00  8.8584997524716685e-02 -6.1285058494813752e-04 0.0000000000000000e+00  8.8093918241472863e-02 7.7755565184090697e-04 0.0000000000000000e+00  8.4140226656413963e-02 2.1700080508770367e-03 0.0000000000000000e+00  9.7461253342642912e-02 6.7993979015471603e-04 0.0000000000000000e+00  9.6975819476445263e-02 -7.0983760163678136e-04 0.0000000000000000e+00  9.3027598421413490e-02 -2.0973768297520229e-03 0.0000000000000000e+00  1.0189751656203271e-01 2.1586514810325746e-03 0.0000000000000000e+00  7.9705940775709097e-02 -6.0759263747705758e-04 0.0000000000000000e+00  7.9215215698640304e-02 7.8277183630968538e-04 0.0000000000000000e+00  7.5262018424856247e-02 2.1748501452356346e-03 0.0000000000000000e+00  9.3018722857518721e-02 2.1644921905747626e-03 0.0000000000000000e+00  8.4148313931871513e-02 -2.0918591681963919e-03 0.0000000000000000e+00  7.0826790843763393e-02 -6.0319482814411767e-04 0.0000000000000000e+00  7.0336619776714890e-02 7.8711225943932958e-04 0.0000000000000000e+00  6.6384101738101914e-02 2.1786434583915826e-03 0.0000000000000000e+00  7.5268728299497850e-02 -2.0870174132897944e-03 0.0000000000000000e+00  6.1947556079717338e-02 -6.0001691859171017e-04 0.0000000000000000e+00  6.1458118472544905e-02 7.9020715820837318e-04 0.0000000000000000e+00  5.7506485900204685e-02 2.1810434982400301e-03 0.0000000000000000e+00  6.6388862365532084e-02 -2.0832118748467334e-03 0.0000000000000000e+00  5.3068224606408448e-02 -5.9843937678985320e-04 0.0000000000000000e+00  5.2579728812222323e-02 7.9168878509984812e-04 0.0000000000000000e+00  4.8629158631094724e-02 2.1816439900143626e-03 0.0000000000000000e+00  5.7508682287510715e-02 -2.0808223504262080e-03 0.0000000000000000e+00  1.3145503530951419e-02 2.1818975111123425e-03 0.0000000000000000e+00  1.3127543419498620e-02 -2.1247566788626521e-03 0.0000000000000000e+00  1.7547064259709887e-02 -6.2125440168492980e-04 0.0000000000000000e+00  1.7064444311945304e-02 7.8174364725216658e-04 0.0000000000000000e+00  2.6433516585338917e-02 6.9172781129885226e-04 0.0000000000000000e+00  2.5941369011781623e-02 -6.9908478564616216e-04 0.0000000000000000e+00  2.1983579454973864e-02 -2.0950622686361931e-03 0.0000000000000000e+00  3.0875213777658686e-02 2.1760197039344129e-03 0.0000000000000000e+00  2.1997357264809260e-02 2.1714990809306341e-03 0.0000000000000000e+00  3.9747466653846160e-02 -2.0817121407722219e-03 0.0000000000000000e+00  4.4188809665312703e-02 -5.9882051163505194e-04 0.0000000000000000e+00  4.3701435257674698e-02 7.9118308219708442e-04 0.0000000000000000e+00  3.9752127175086457e-02 2.1801194981329475e-03 0.0000000000000000e+00  3.5311412837254245e-02 6.9698917761937902e-04 0.0000000000000000e+00  3.5797563690466445e-02 -6.9284142134070292e-04 0.0000000000000000e+00  3.0866218500473004e-02 -2.0857116936438286e-03 0.0000000000000000e+00  4.8628233912628209e-02 -2.0802018925761274e-03 0.0000000000000000e+00  1.1078544982425637e-01 -2.1088688488282580e-03 0.0000000000000000e+00  1.1522131761088054e-01 -6.3019738071912494e-04 0.0000000000000000e+00  1.1473037771151322e-01 7.6037797268139757e-04 0.0000000000000000e+00  1.1077678020601740e-01 2.1528195501669210e-03 0.0000000000000000e+00  1.0634013605964626e-01 6.7403484086389740e-04 0.0000000000000000e+00  1.0683134635077460e-01 -7.1630468806630453e-04 0.0000000000000000e+00  1.0190658645550600e-01 -2.1031846023473150e-03 0.0000000000000000e+00  1.2851278986766129e-01 2.1671145468630773e-03 0.0000000000000000e+00  1.1966536524890405e-01 -2.1166772506827970e-03 0.0000000000000000e+00  1.3824682972226476e-01 5.2305496352302667e-04 0.0000000000000000e+00  1.3077061569615642e-01 -1.0826530427873752e-03 0.0000000000000000e+00  0.0000000000000000e+00 0.0000000000000000e+00 0.0000000000000000e+00  3.4194703966410108e-03 -5.2839935107880040e-04 0.0000000000000000e+00  1.0071603770488352e-02 9.6188359377687648e-04 0.0000000000000000e+00  1.3076963736509201e-01 1.1045891708589930e-03 0.0000000000000000e+00  1.0875451714464766e-02 -1.0650494044522672e-03 0.0000000000000000e+00  1.3456311053610612e-01 1.0826572394027100e-03 0.0000000000000000e+00  7.0790743119711688e-03 -1.0510188061207766e-03 0.0000000000000000e+00  1.2713630350280444e-01 1.0347729830751909e-03 0.0000000000000000e+00  2.8773077385771694e-03 3.2149143968808193e-04 0.0000000000000000e+00  1.3878560339512427e-01 -3.1321532360222286e-04 0.0000000000000000e+00  1.0291568951698936e-01 1.0925055626718012e-03 0.0000000000000000e+00  1.1835489477085699e-01 1.0838615792222598e-03 0.0000000000000000e+00  3.1888932273773554e-02 1.1113476401331988e-03 0.0000000000000000e+00  4.7326209245051515e-02 1.1162707433624139e-03 0.0000000000000000e+00  2.2516318800390643e-02 -1.0280439727735147e-03 0.0000000000000000e+00  5.6492153835057665e-02 -1.0150509984647739e-03 0.0000000000000000e+00  6.5082532496996151e-02 1.1137431170829871e-03 0.0000000000000000e+00  7.4251105186568730e-02 -1.0209737063364434e-03 0.0000000000000000e+00  8.2839446067253214e-02 1.1053572219543509e-03 0.0000000000000000e+00  9.3552892035380170e-02 -1.0322305264966105e-03 0.0000000000000000e+00  3.9221011769988635e-02 -1.0162382777503275e-03 0.0000000000000000e+00  1.1025554449713920e-01 -1.0430931174895248e-03 0.0000000000000000e+00  0.0000000000000000e+00 0.0000000000000000e+00 0.0000000000000000e+00  1.4165252721406646e-01 0.0000000000000000e+00 0.0000000000000000e+00  1.2067731855451380e-01 -1.0524585825207277e-03 0.0000000000000000e+00  1.0976288982421303e-01 1.0879631271876488e-03 0.0000000000000000e+00  4.9644402797896697e-02 -1.0145559025265107e-03 0.0000000000000000e+00  3.8735235466189365e-02 1.1145081069877673e-03 0.0000000000000000e+00  5.6204297865318192e-02 1.1159207342577291e-03 0.0000000000000000e+00  6.7403578242958187e-02 -1.0180193004833910e-03 0.0000000000000000e+00  7.3960916699679816e-02 1.1100946117453057e-03 0.0000000000000000e+00  8.5162165098789031e-02 -1.0269503652783560e-03 0.0000000000000000e+00  9.4036827920991342e-02 1.0983862121640886e-03 0.0000000000000000e+00  2.3011421236782011e-02 1.1061759494491795e-03 0.0000000000000000e+00  2.9565657433379845e-02 -1.0208401840108489e-03 0.0000000000000000e+00  1.0060143491024341e-01 -1.0368657007147090e-03 0.0000000000000000e+00  1.3646081327532861e-02 1.1177896684050584e-03 0.0000000000000000e+00  1.4415725832817344e-02 -1.1338733768952779e-03 0.0000000000000000e+00  1.2723176183968463e-01 -1.1518612894907377e-03 0.0000000000000000e+00  1.0394795088718289e-01 -1.2752419601759313e-03 0.0000000000000000e+00  3.2911599360940805e-02 -1.2550614986763841e-03 0.0000000000000000e+00  6.8603694087295674e-03 1.2331756546430936e-03 0.0000000000000000e+00  1.3202835399350810e-01 1.1228787085564651e-04 0.0000000000000000e+00  1.3409773179250070e-01 -1.1621894468241997e-03 0.0000000000000000e+00  9.6409273706098905e-03 -8.1651559029760507e-05 0.0000000000000000e+00  9.9679397808657699e-02 1.4192956932464447e-03 0.0000000000000000e+00  2.8654433076514978e-02 1.4339231402331495e-03 0.0000000000000000e+00  1.1744282507835838e-01 -1.3730222652582314e-03 0.0000000000000000e+00  4.6408352006485971e-02 -1.3394202752937464e-03 0.0000000000000000e+00  5.9655163073839522e-02 -1.3206309534156506e-03 0.0000000000000000e+00  6.4168093624608138e-02 -1.3415560116312895e-03 0.0000000000000000e+00  7.7414313467081344e-02 -1.3275259702764568e-03 0.0000000000000000e+00  8.1927062323619737e-02 -1.3496981038872485e-03 0.0000000000000000e+00  9.0788180692631892e-02 1.3933904597814657e-03 0.0000000000000000e+00  1.9764967762517044e-02 1.3996214421958966e-03 0.0000000000000000e+00  1.1300526560326177e-01 -2.1103137964091083e-03 0.0000000000000000e+00  4.1967679785175918e-02 -2.0811291152696967e-03 0.0000000000000000e+00  9.0574026729457677e-02 -1.3549536128488111e-03 0.0000000000000000e+00  1.9535415386237036e-02 -1.3595497148456454e-03 0.0000000000000000e+00  1.1299680298127812e-01 2.1514871507588421e-03 0.0000000000000000e+00  4.1971353267796524e-02 2.1807360390692547e-03 0.0000000000000000e+00  5.0848456354973148e-02 2.1816927071983171e-03 0.0000000000000000e+00  5.9725854038974235e-02 2.1806000306625380e-03 0.0000000000000000e+00  6.8603548982534679e-02 2.1778195508687665e-03 0.0000000000000000e+00  7.7481537460396543e-02 2.1737235057493099e-03 0.0000000000000000e+00  8.6359821307224735e-02 2.1686783701053446e-03 0.0000000000000000e+00  1.2187737066834924e-01 2.1516967543128498e-03 0.0000000000000000e+00  1.3913561201515115e-01 1.2844531033903998e-03 0.0000000000000000e+00  2.5080578678242237e-03 1.3512419560481577e-03 0.0000000000000000e+00  1.3911417176710145e-01 -8.0907676161999715e-04 0.0000000000000000e+00  2.4336141512389959e-03 -1.2450680042371519e-03 0.0000000000000000e+00  1.9771852591487268e-02 5.5471196590683731e-04 0.0000000000000000e+00  1.1711885470124216e-01 3.4310478598113581e-04 0.0000000000000000e+00  4.6088921638658645e-02 3.7563114196939259e-04 0.0000000000000000e+00  6.3846245170055577e-02 3.7360314607009023e-04 0.0000000000000000e+00  8.1603757765789389e-02 3.6551569158594765e-04 0.0000000000000000e+00  1.0481488849133214e-01 -7.5967187706550078e-05 0.0000000000000000e+00  3.3783428495939849e-02 -5.4718590757862666e-05 0.0000000000000000e+00  2.7958334852502906e-02 -5.8267035897560819e-05 0.0000000000000000e+00  5.4967564485054313e-02 3.7555838834965561e-04 0.0000000000000000e+00  7.2724984379409371e-02 3.7013199926873004e-04 0.0000000000000000e+00  9.8989633657202966e-02 -7.2112221981949142e-05 0.0000000000000000e+00  9.0801023193910785e-02 5.5078125807343737e-04 0.0000000000000000e+00  1.2589453516106483e-01 2.7370395024792774e-04 0.0000000000000000e+00  4.0890450233153075e-03 1.0337513323193099e-03 0.0000000000000000e+00  4.2074663174376387e-02 -1.2047944258804567e-03 0.0000000000000000e+00  1.1310939300062701e-01 -1.2342248850298893e-03 0.0000000000000000e+00  8.5715345882768135e-02 1.3045787739877164e-03 0.0000000000000000e+00  1.2123107808460054e-01 1.2860527804017608e-03 0.0000000000000000e+00  5.9080315397308340e-02 1.3163192179350884e-03 0.0000000000000000e+00  7.6836827123886328e-02 1.3095906183696968e-03 0.0000000000000000e+00  6.7958484348616774e-02 1.3136254065166334e-03 0.0000000000000000e+00  5.0202322239623023e-02 1.3172973723026939e-03 0.0000000000000000e+00  1.0793846338745890e-01 -1.4547057755766016e-03 0.0000000000000000e+00  3.6902125635321602e-02 -1.4302061449514966e-03 0.0000000000000000e+00  9.5247372400163954e-02 -2.0988181251856367e-03 0.0000000000000000e+00  2.4204360221863199e-02 -2.0915542529295118e-03 0.0000000000000000e+00  1.5972567357008555e-02 1.5256292256036119e-03 0.0000000000000000e+00  2.0235402745229676e-02 -5.7681343365204528e-04 0.0000000000000000e+00  9.1270387925570517e-02 -5.7651091158432953e-04 0.0000000000000000e+00  1.0068840885965334e-01 7.0886814907717192e-04 0.0000000000000000e+00  2.9660390044806757e-02 7.2492417193645504e-04 0.0000000000000000e+00  4.6855885963682689e-02 -5.4901835076792737e-04 0.0000000000000000e+00  1.1788803484597191e-01 -5.8284738789851891e-04 0.0000000000000000e+00  6.4614508362676806e-02 -5.5136480481299158e-04 0.0000000000000000e+00  8.2372797868187464e-02 -5.5964225941002867e-04 0.0000000000000000e+00  1.3651630519440480e-01 -1.2311362932325765e-03 0.0000000000000000e+00  1.1252383515199109e-01 1.3064407150113211e-03 0.0000000000000000e+00  4.1496401228671466e-02 1.3355017364232798e-03 0.0000000000000000e+00  1.0957378097631702e-02 2.1779684562096085e-03 0.0000000000000000e+00  5.8655297943597536e-02 -6.2472728744615731e-04 0.0000000000000000e+00  7.6413777211624831e-02 -6.3134397271747973e-04 0.0000000000000000e+00  9.5788551807377317e-02 -1.3679101334818414e-03 0.0000000000000000e+00  2.4750290171620289e-02 -1.3593573412022338e-03 0.0000000000000000e+00  2.7273980966336153e-02 -1.3406082677411921e-03 0.0000000000000000e+00  9.8311715491327140e-02 -1.3533346913954854e-03 0.0000000000000000e+00  1.1271949928659822e-01 -4.7737707531322584e-04 0.0000000000000000e+00  4.1687132252191922e-02 -4.4817242306509683e-04 0.0000000000000000e+00  6.0254837835868040e-02 4.9698395135331767e-05 0.0000000000000000e+00  7.8012627382800653e-02 4.2598596585827940e-05 0.0000000000000000e+00  2.6171367352941430e-02 1.4323625513722575e-03 0.0000000000000000e+00  9.7195921755382608e-02 1.4209419491900788e-03 0.0000000000000000e+00  8.6249168222721620e-02 -3.5789347012915042e-04 0.0000000000000000e+00  6.8491096964807763e-02 -3.4870591858042282e-04 0.0000000000000000e+00  5.0732805598417738e-02 -3.4480622306732163e-04 0.0000000000000000e+00  1.2176532511195888e-01 -3.8228403177541600e-04 0.0000000000000000e+00  3.4320522482159443e-02 1.4372305668101128e-03 0.0000000000000000e+00  1.0534640801454780e-01 1.4155156217968486e-03 0.0000000000000000e+00  1.5850027538984540e-02 3.2176093298000915e-05 0.0000000000000000e+00  2.4097739797760920e-02 4.3657837388896473e-04 0.0000000000000000e+00  9.5126484460023100e-02 4.2797410954652134e-04 0.0000000000000000e+00  3.7646200811502405e-02 4.4447966178712603e-04 0.0000000000000000e+00  1.0867592474903968e-01 4.1900772278612148e-04 0.0000000000000000e+00  1.6850134693017625e-02 -1.3692189229420489e-03 0.0000000000000000e+00  8.7594256517876737e-02 -1.3530829944272274e-03 0.0000000000000000e+00  6.9835529443032118e-02 -1.3436456605384992e-03 0.0000000000000000e+00  5.2076034819285112e-02 -1.3392747582408728e-03 0.0000000000000000e+00  1.2310844980694412e-01 -1.3829640870245770e-03 0.0000000000000000e+00  7.3048788349919680e-02 -2.0859526971471684e-03 0.0000000000000000e+00  5.5288595780415908e-02 -2.0804841787971174e-03 0.0000000000000000e+00  3.7532908889930106e-02 2.1793454944647414e-03 0.0000000000000000e+00  1.0855687986641507e-01 2.1542441499271298e-03 0.0000000000000000e+00  7.3151364270449284e-02 -3.5846804332657976e-04 0.0000000000000000e+00  5.5393121644862424e-02 -3.5289939652099193e-04 0.0000000000000000e+00  1.2661373849417260e-01 -4.3490972505844875e-04 0.0000000000000000e+00  2.4216859484881146e-02 2.1720951729895990e-03 0.0000000000000000e+00  9.5238395563051526e-02 2.1630512759850096e-03 0.0000000000000000e+00  1.2630939454466603e-01 2.1605663234987825e-03 0.0000000000000000e+00  1.2492802663522595e-01 1.4284004101681154e-03 0.0000000000000000e+00  3.2104860968543689e-02 -5.7447198279429832e-04 0.0000000000000000e+00  1.0313845643296667e-01 -5.9373750365238802e-04 0.0000000000000000e+00  1.3269046898999237e-01 -6.0277509994499775e-04 0.0000000000000000e+00  6.4164670384450589e-02 2.1793830372740996e-03 0.0000000000000000e+00  6.2773546312572454e-02 1.4509616921099570e-03 0.0000000000000000e+00  4.6409874721365769e-02 2.1814687746151830e-03 0.0000000000000000e+00  4.5017785680157144e-02 1.4525001845723444e-03 0.0000000000000000e+00  8.1920646157890992e-02 2.1712890602526144e-03 0.0000000000000000e+00  8.0530082685507459e-02 1.4431845981804406e-03 0.0000000000000000e+00  1.1743725816762079e-01 2.1498400881945221e-03 0.0000000000000000e+00  1.1604560288279055e-01 1.4210284259025174e-03 0.0000000000000000e+00  7.3042511172054653e-02 2.1759016214250508e-03 0.0000000000000000e+00  7.1651717451439348e-02 1.4476680881043518e-03 0.0000000000000000e+00  5.5287125288583885e-02 2.1813614142776288e-03 0.0000000000000000e+00  5.3895568201211663e-02 1.4526956036733424e-03 0.0000000000000000e+00  2.0615394607647170e-03 -6.6512869384141669e-04 0.0000000000000000e+00  1.3961162226548510e-01 6.2329066528012372e-04 0.0000000000000000e+00  5.0251620215388308e-02 5.9064890511241887e-04 0.0000000000000000e+00  6.8008716674422723e-02 5.8693913610207262e-04 0.0000000000000000e+00  1.2128223083123339e-01 5.5768900803916297e-04 0.0000000000000000e+00  1.0900385259113049e-01 -4