<?xml version="1.0"?>
<VTKFile type="UnstructuredGrid"  version="0.1"  >
<UnstructuredGrid>
<Piece  NumberOfPoints="820" NumberOfCells="1464">
<Points>
<DataArray  type="Float64"  NumberOfComponents="3"  format="ascii">0 0.1 0  0 0 0  1 0 0  1 0.1 0  0.5 0 0  0.5 0.1 0  0.25 0 0  0.25 0.1 0  0.75 0.1 0  0.75 0 0  0.375 0.1 0  0.375 0 0  0.125 0 0  0.125 0.1 0  0.625 0 0  0.625 0.1 0  0.875 0.1 0  0.875 0 0  0.6875 0.1 0  0.6875 0 0  0.5625 0 0  0.5625 0.1 0  0.0625 0.1 0  0.0625 0 0  0.1875 0.1 0  0.1875 0 0  0.3125 0 0  0.3125 0.1 0  0.4375 0.1 0  0.4375 0 0  0.8125 0 0  0.8125 0.1 0  0.9375 0.1 0  0.9375 0 0  0.84375 0.05000000000000001 0  0.78125 0.05 0  0.34375 0.05000000000000001 0  0.28125 0.05 0  0.15625 0.05 0  0.21875 0.05000000000000001 0  0 0.05 0  0.09375 0.05000000000000001 0  0.40625 0.05 0  0.46875 0.05000000000000001 0  0.53125 0.05 0  0.59375 0.05000000000000001 0  0.65625 0.05 0  0.71875 0.05000000000000001 0  0.90625 0.05 0  1 0.05 0  0.046875 0.04453125000000001 0  0.953125 0.05546875 0  0.96875 0 0  0.03125 0.1 0  0.03125 0 0  0.96875 0.1 0  1 0.07500000000000001 0  0.875 0.06523437500000001 0  0.8715625 0.03261718750000001 0  0.84375 0 0  0.90625 0.1 0  0.625 0.06523437500000001 0  0.6215625 0.03261718750000001 0  0.59375 0 0  0.6875 0.034765625 0  0.6840625 0.0673828125 0  0.65625 0.1 0  0.71875 0 0  0.5625 0.06523437500000001 0  0.5590625 0.03261718750000001 0  0.53125 0 0  0.65625 0 0  0.59375 0.1 0  0.5 0.06523437500000001 0  0.4965625 0.03261718750000001 0  0.46875 0 0  0.53125 0.1 0  0.4375 0.06523437500000001 0  0.4340625 0.03261718750000001 0  0.40625 0 0  0.46875 0.1 0  0.375 0.06523437500000001 0  0.3715625 0.03261718750000001 0  0.34375 0 0  0.40625 0.1 0  0.09375 0 0  0.09375 0.1 0  0.125 0.06523437500000001 0  0.1215625 0.03261718750000001 0  0.1875 0.034765625 0  0.1840625 0.0673828125 0  0.15625 0.1 0  0.21875 0 0  0.15625 0 0  0.28125 0.1 0  0.3125 0.06523437500000001 0  0.3090625 0.03261718750000001 0  0.28125 0 0  0.25 0.034765625 0  0.2534375 0.0673828125 0  0.21875 0.1 0  0.34375 0.1 0  0.78125 0.1 0  0.8125 0.06523437500000001 0  0.8090625 0.03261718750000001 0  0.78125 0 0  0.75 0.034765625 0  0.7534375 0.0673828125 0  0.71875 0.1 0  0.90625 0 0  0.84375 0.1 0  0.9740776699029127 0.03143583131067961 0  0.921875 0.075 0  0 0.025 0  0.02592233009708738 0.06856416868932039 0  0.0725 0.028515625 0  0.921875 0.025 0  0.078125 0.07500000000000001 0  0.9484670937186905 0.0242372460741816 0  0.05153290628130947 0.07576275392581842 0  0.8963594872172794 0.02643561701079966 0  0.02229817708333334 0.0375 0  0.9777018229166666 0.06250000000000001 0  0.72590087890625 0.025 0  0.8345789124085022 0.025 0  0.22590087890625 0.025 0  0.3345789124085023 0.025 0  0.15996337890625 0.075 0  0.39909912109375 0.075 0  0.4595789124085023 0.025 0  0.52409912109375 0.075 0  0.5845789124085022 0.025 0  0.65996337890625 0.075 0  0.27753662109375 0.075 0  0.77753662109375 0.075 0  0 0.07500000000000001 0  1 0.025 0  0.85090087890625 0.07500000000000001 0  0.77409912109375 0.025 0  0.35090087890625 0.07500000000000001 0  0.27409912109375 0.025 0  0.3970789124085022 0.025 0  0.47590087890625 0.07500000000000001 0  0.5220789124085022 0.025 0  0.60090087890625 0.07500000000000001 0  0.66340087890625 0.025 0  0.16340087890625 0.025 0  0.2095789124085023 0.07500000000000001 0  0.7095789124085022 0.07500000000000001 0  0.0974991439537346 0.02496950333675565 0  0.1029665898617512 0.07685681883640554 0  0.8970334101382489 0.07685681883640554 0  0.7331321502083639 0.0805418246751822 0  0.2331321502083639 0.08054182467518221 0  0.04967773437499999 0.02050781250000001 0  0.9302821601941748 0.04763728762135922 0  0.9453125 0.07773437499999999 0  0.06981448887637284 0.05242311804773303 0  0.703125 0.0173828125 0  0.203125 0.0173828125 0  0.828125 0.08261718750000001 0  0.328125 0.08261718750000001 0  0.4213608787615672 0.08215505604972331 0  0.453125 0.08261718750000001 0  0.5463608787615671 0.08215505604972331 0  0.578125 0.08261718750000001 0  0.6405370048634059 0.0181271643224308 0  0.1405370048634059 0.0181271643224308 0  0.796875 0.1 0  0.296875 0.1 0  0.6389903131525874 0.08261718750000001 0  0.1389903131525873 0.08261718750000001 0  0.796875 0 0  0.296875 0 0  0.359375 0 0  0.421875 0 0  0.484375 0 0  0.546875 0 0  0.609375 0 0  0.859375 0 0  0.984375 0 0  0.015625 0 0  0.9808265015870887 0.08306437698386088 0  0.015625 0.1 0  0.140615310157384 0.03789815460447876 0  0.8258710430305984 0.04237660226422156 0  0.3258710430305984 0.04237660226422154 0  0.4508710430305984 0.04237660226422154 0  0.5758710430305984 0.04237660226422156 0  0.73925254007477 0.05238802290978471 0  0.23925254007477 0.05238802290978471 0  0.19824745992523 0.05238802290978471 0  0.3883710430305984 0.04237660226422155 0  0.5133710430305984 0.04237660226422155 0  0.69824745992523 0.05238802290978471 0  0.6406153101573839 0.03789815460447876 0  0.8875652355519991 0.04398459561477483 0  0.03011990291140283 0.01954869700666445 0  0.2976228417042103 0.07944206017604956 0  0.7976228417042103 0.07944206017604956 0  0.6048261925064409 0.0202852140350185 0  0.8548261925064409 0.0202852140350185 0  0.4173261925064409 0.02028521403501849 0  0.5423261925064409 0.02028521403501849 0  0.479826192506441 0.02028521403501848 0  0.354826192506441 0.02028521403501848 0  0.7612196085333947 0.08469269433495656 0  0.2612196085333947 0.08469269433495656 0  0.671875 0.1 0  0.171875 0.1 0  0.1138156987561534 0.01531102667280419 0  0.1439032206506398 0.06434174268079966 0  0.6439032206506399 0.06434174268079966 0  0.7102169938849521 0.03403655887996306 0  0.2102169938849521 0.03403655887996306 0  0.331272668838501 0.06407394409179688 0  0.8312726688385009 0.06407394409179688 0  0.456272668838501 0.06407394409179688 0  0.5812726688385009 0.06407394409179688 0  0.9626931005513372 0.08290734481438196 0  0.7935362330470901 0.01983307912641665 0  0.2935362330470901 0.01983307912641665 0  0.078125 0 0  0.4143262322415116 0.06583278773374907 0  0.5393262322415115 0.06583278773374907 0  0.6756954193768612 0.08284197013692297 0  0.1756954193768612 0.08284197013692297 0  0.1934564775596677 0.08246105735569852 0  0.6934564775596677 0.0824610573556985 0  0.7948904737904949 0.06168801049385652 0  0.2948904737904949 0.06168801049385652 0  0.42558837890625 0.05 0  0.55058837890625 0.05 0  0.185643310546875 0.0173828125 0  0.685643310546875 0.0173828125 0  0.6085613945093048 0.05928612183988766 0  0.4835613945093048 0.05928612183988766 0  0.3585613945093048 0.05928612183988766 0  0.8585613945093048 0.05928612183988766 0  0.2430157823768409 0.0173828125 0  0.743015782376841 0.0173828125 0  0.11308837890625 0.05 0  0.1710613945093048 0.04071387816011236 0  0.6710613945093048 0.04071387816011236 0  0.2664386054906952 0.04071387816011236 0  0.7664386054906952 0.04071387816011236 0  0.1200872144236349 0.08261718750000001 0  0.618015782376841 0.08261718750000001 0  0.4930157823768409 0.08261718750000001 0  0.3680157823768409 0.08261718750000001 0  0.868015782376841 0.08261718750000001 0  0.515625 0.1 0  0.390625 0.1 0  0.265625 0 0  0.765625 0 0  0.516365031953596 0.05946768293606444 0  0.3913650319535959 0.05946768293606444 0  0.8926135952226929 0.06033018746614476 0  0.171875 0 0  0.671875 0 0  0.890625 0 0  0.8808652108632187 0.0171078614816925 0  0.2274441083295474 0.06456313374723947 0  0.7274441083295474 0.06456313374723946 0  0.9350285939903868 0.06406852472525566 0  0.453125 0 0  0.4433265752246126 0.01710378970181546 0  0.328125 0 0  0.3183265752246126 0.01710378970181546 0  0.578125 0 0  0.5683265752246126 0.01710378970181545 0  0.828125 0 0  0.8183265752246126 0.01710378970181545 0  0.515625 0 0  0.5058265752246126 0.01710378970181545 0  0.390625 0 0  0.3808265752246126 0.01710378970181545 0  0.01564771141956889 0.08260299286276945 0  0.9843522885804311 0.01739700713723054 0  0.3551736619148977 0.03733645281383641 0  0.4801736619148977 0.03733645281383641 0  0.8551736619148977 0.03733645281383642 0  0.7687346279121444 0.06091681090943113 0  0.2687346279121444 0.06091681090943113 0  0.6687653720878556 0.06091681090943113 0  0.1687653720878556 0.06091681090943113 0  0.6051736619148977 0.03733645281383642 0  0.2924478939734164 0.03697522410746614 0  0.7924478939734163 0.03697522410746614 0  0.8719142286486647 0.04906985056606887 0  0.6274213820068905 0.04848945596065109 0  0.4983341418505795 0.04892020701904073 0  0.3733341418505795 0.04892020701904073 0  0.3108341418505795 0.04892020701904073 0  0.8108341418505794 0.04892020701904073 0  0.6242024164762008 0.01640567476785111 0  0.3848561971730207 0.08410836408489761 0  0.5098561971730207 0.08410836408489761 0  0.2598561971730207 0.01589163591510238 0  0.7598561971730207 0.01589163591510238 0  0.890625 0.1 0  0.9582054159658413 0.03874795528975266 0  0.03565822065430611 0.08308352918541601 0  0.9643417793456939 0.016916470814584 0  0 0.0625 0  0.0168287001921521 0.05388159890776699 0  0.0417945840341587 0.06125204471024735 0  0.9831712998078479 0.04611840109223304 0  0.5622607296296599 0.08116332765030569 0  0.4372607296296599 0.08116332765030566 0  0.046875 0.1 0  0.953125 0 0  0.415919189453125 0.03668247284720479 0  0.540919189453125 0.03668247284720479 0  0.0859375 0.01393925506164327 0  0.109375 0.1 0  0.1338555271916189 0.05216484236021472 0  0.953125 0.1 0  0.140625 0 0  0.640625 0 0  0.546875 0.1 0  0.421875 0.1 0  0.203125 0 0  0.703125 0 0  0.046875 0 0  0.234375 0.1 0  0.734375 0.1 0  0.078125 0.1 0  0.921875 0 0  0.921875 0.1 0  0.828125 0.1 0  0.328125 0.1 0  0.453125 0.1 0  0.578125 0.1 0  0.640625 0.1 0  0.140625 0.1 0  0.984375 0.1 0  0.765625 0.1 0  0.265625 0.1 0  0.109375 0 0  0.203125 0.1 0  0.703125 0.1 0  0.234375 0 0  0.734375 0 0  0.609375 0.1 0  0.484375 0.1 0  0.359375 0.1 0  0.859375 0.1 0  0.03162846341645094 0.04971906156616034 0  0.9677597279973049 0.05078312969016881 0  0.8125319459969864 0.08431483734279674 0  0.3125319459969864 0.08431483734279674 0  0.01533347852251798 0.02378565849770013
[...]
<PointData  Vectors="damage"> 
<DataArray  type="Float64"  Name="damage"  NumberOfComponents="3" format="ascii">0.0000000000000000e+00 0.0000000000000000e+00 0.0000000000000000e+00  0.0000000000000000e+00 0.0000000000000000e+00 0.0000000000000000e+00  7.0826263607033230e-02 0.0000000000000000e+00 0.0000000000000000e+00  7.0826263607033230e-02 0.0000000000000000e+00 0.0000000000000000e+00  3.5411508198540845e-02 1.0884521787238603e-03 0.0000000000000000e+00  3.5414417585053634e-02 -1.0424833546412802e-03 0.0000000000000000e+00  1.7656843258075743e-02 1.0891968462537005e-03 0.0000000000000000e+00  1.7653486622998819e-02 -1.0416830081606528e-03 0.0000000000000000e+00  5.3172997346219504e-02 -1.0530295500973065e-03 0.0000000000000000e+00  5.3168525441669438e-02 1.0778531014861224e-03 0.0000000000000000e+00  2.6534249489135020e-02 -1.0401377796030275e-03 0.0000000000000000e+00  2.6533886979412294e-02 1.0907987409085405e-03 0.0000000000000000e+00  8.7804888042863141e-03 1.0872174127559465e-03 0.0000000000000000e+00  8.7723603008543240e-03 -1.0536016239936440e-03 0.0000000000000000e+00  4.4289719541697185e-02 1.0836565022465802e-03 0.0000000000000000e+00  4.4293996436041747e-02 -1.0472796704586349e-03 0.0000000000000000e+00  6.2051331674680223e-02 -1.0634324226375053e-03 0.0000000000000000e+00  6.2047574882419611e-02 1.0776965539189655e-03 0.0000000000000000e+00  4.8733564434943755e-02 -1.0501354198661141e-03 0.0000000000000000e+00  4.8729041341288006e-02 1.0807967105378700e-03 0.0000000000000000e+00  3.9850539893656375e-02 1.0862683887530886e-03 0.0000000000000000e+00  3.9854280103172393e-02 -1.0446669899408217e-03 0.0000000000000000e+00  4.3893402565874044e-03 -1.0523387213826156e-03 0.0000000000000000e+00  4.3976537507912387e-03 1.0758683383345329e-03 0.0000000000000000e+00  1.3212554972254414e-02 -1.0445819054538215e-03 0.0000000000000000e+00  1.3218220799702373e-02 1.0866303307188823e-03 0.0000000000000000e+00  2.2095297629703067e-02 1.0905913550890371e-03 0.0000000000000000e+00  2.2093943778882418e-02 -1.0403409732715231e-03 0.0000000000000000e+00  3.0974404760349718e-02 -1.0409115148726418e-03 0.0000000000000000e+00  3.0972623833380578e-02 1.0900241939316708e-03 0.0000000000000000e+00  5.7608492436505183e-02 1.0752040746436554e-03 0.0000000000000000e+00  5.7612612812021693e-02 -1.0559711592204009e-03 0.0000000000000000e+00  6.6433572214303738e-02 -1.0608944061606662e-03 0.0000000000000000e+00  6.6429066030191858e-02 1.0686030057204547e-03 0.0000000000000000e+00  5.9829848025017167e-02 8.2755496683262999e-06 0.0000000000000000e+00  5.5390388497761789e-02 1.0965627260146071e-05 0.0000000000000000e+00  2.4314344457781620e-02 2.5466691691017901e-05 0.0000000000000000e+00  1.9874899103579789e-02 2.4725662706245079e-05 0.0000000000000000e+00  1.0996014147216893e-02 1.9354838560688357e-05 0.0000000000000000e+00  1.5435531053139868e-02 2.2717192335363930e-05 0.0000000000000000e+00  0.0000000000000000e+00 0.0000000000000000e+00 0.0000000000000000e+00  6.5424774341704059e-03 1.4610218500592803e-05 0.0000000000000000e+00  2.8753797084407968e-02 2.5138991649794017e-05 0.0000000000000000e+00  3.3193239133570140e-02 2.3926854103014802e-05 0.0000000000000000e+00  3.7632689652497539e-02 2.2007175232198900e-05 0.0000000000000000e+00  4.2072133697487045e-02 1.9569276569573834e-05 0.0000000000000000e+00  4.6511581771792501e-02 1.6793639828797705e-05 0.0000000000000000e+00  5.0951027276398581e-02 1.3864141536827431e-05 0.0000000000000000e+00  6.4283979441314865e-02 5.8549025531337701e-06 0.0000000000000000e+00  7.0826263607033230e-02 0.0000000000000000e+00 0.0000000000000000e+00  3.1692155786755888e-03 1.1816283946847959e-04 0.0000000000000000e+00  6.7661441372870085e-02 -1.0414468019611993e-04 0.0000000000000000e+00  6.8532056136813901e-02 9.2481562689612404e-04 0.0000000000000000e+00  2.2807176850239497e-03 -9.0277194686221127e-04 0.0000000000000000e+00  2.3036256580013497e-03 9.1989413529206183e-04 0.0000000000000000e+00  6.8536816357278804e-02 -9.0338281706630556e-04 0.0000000000000000e+00  7.0826263607033230e-02 0.0000000000000000e+00 0.0000000000000000e+00  6.2051681566425730e-02 -3.2056965583778836e-04 0.0000000000000000e+00  6.1805963641169005e-02 3.8060003162760319e-04 0.0000000000000000e+00  5.9828789470589651e-02 1.0750414790178654e-03 0.0000000000000000e+00  6.4259646622078892e-02 -1.0714885061730037e-03 0.0000000000000000e+00  4.4292498762358343e-02 -3.0642529247406876e-04 0.0000000000000000e+00  4.4046959120736431e-02 3.8877782592045348e-04 0.0000000000000000e+00  4.2070113328206982e-02 1.0850040254385184e-03 0.0000000000000000e+00  4.8730626671321456e-02 3.3996989507735801e-04 0.0000000000000000e+00  4.8487909738222632e-02 -3.5491880081839068e-04 0.0000000000000000e+00  4.6513799210706745e-02 -1.0486884148760115e-03 0.0000000000000000e+00  5.0948758281016353e-02 1.0793257405162873e-03 0.0000000000000000e+00  3.9852970387854549e-02 -3.0379631873852879e-04 0.0000000000000000e+00  3.9607607849320152e-02 3.9138591815484269e-04 0.0000000000000000e+00  3.7631009212428124e-02 1.0874250726178173e-03 0.0000000000000000e+00  4.6509361428759360e-02 1.0822460952873813e-03 0.0000000000000000e+00  4.2074156965935756e-02 -1.0459295840981959e-03 0.0000000000000000e+00  3.5413395421881697e-02 -3.0159741407205883e-04 0.0000000000000000e+00  3.5168309888357445e-02 3.9355612971966479e-04 0.0000000000000000e+00  3.3192050869050957e-02 1.0893217291957913e-03 0.0000000000000000e+00  3.7634364149748925e-02 -1.0435087066448972e-03 0.0000000000000000e+00  3.0973778039858669e-02 -3.0000845929585508e-04 0.0000000000000000e+00  3.0729059236272453e-02 3.9510357910418659e-04 0.0000000000000000e+00  2.8753242950102342e-02 1.0905217491200150e-03 0.0000000000000000e+00  3.3194431182766042e-02 -1.0416059374233667e-03 0.0000000000000000e+00  2.6534112303204224e-02 -2.9921968839492660e-04 0.0000000000000000e+00  2.6289864406111162e-02 3.9584439254992406e-04 0.0000000000000000e+00  2.4314579315547362e-02 1.0908219950071813e-03 0.0000000000000000e+00  2.8754341143755358e-02 -1.0404111752131040e-03 0.0000000000000000e+00  6.5727517654757097e-03 1.0909487555561712e-03 0.0000000000000000e+00  6.5637717097493100e-03 -1.0623783394313260e-03 0.0000000000000000e+00  8.7735321298549433e-03 -3.1062720084246490e-04 0.0000000000000000e+00  8.5322221559726522e-03 3.9087182362608329e-04 0.0000000000000000e+00  1.3216758292669458e-02 3.4586390564942613e-04 0.0000000000000000e+00  1.2970684505890812e-02 -3.4954239282308108e-04 0.0000000000000000e+00  1.0991789727486932e-02 -1.0475311343180966e-03 0.0000000000000000e+00  1.5437606888829343e-02 1.0880098519672064e-03 0.0000000000000000e+00  1.0998678632404630e-02 1.0857495404653170e-03 0.0000000000000000e+00  1.9873733326923080e-02 -1.0408560703861109e-03 0.0000000000000000e+00  2.2094404832656352e-02 -2.9941025581752597e-04 0.0000000000000000e+00  2.1850717628837349e-02 3.9559154109854221e-04 0.0000000000000000e+00  1.9876063587543229e-02 1.0900597490664738e-03 0.0000000000000000e+00  1.7655706418627123e-02 3.4849458880968951e-04 0.0000000000000000e+00  1.7898781845233223e-02 -3.4642071067035146e-04 0.0000000000000000e+00  1.5433109250236502e-02 -1.0428558468219143e-03 0.0000000000000000e+00  2.4314116956314104e-02 -1.0401009462880637e-03 0.0000000000000000e+00  5.5392724912128183e-02 -1.0544344244141290e-03 0.0000000000000000e+00  5.7610658805440272e-02 -3.1509869035956247e-04 0.0000000000000000e+00  5.7365188855756609e-02 3.8018898634069879e-04 0.0000000000000000e+00  5.5388390103008701e-02 1.0764097750834605e-03 0.0000000000000000e+00  5.3170068029823131e-02 3.3701742043194870e-04 0.0000000000000000e+00  5.3415673175387299e-02 -3.5815234403315226e-04 0.0000000000000000e+00  5.0953293227753001e-02 -1.0515923011736575e-03 0.0000000000000000e+00  6.4256394933830646e-02 1.0835572734315387e-03 0.0000000000000000e+00  5.9832682624452023e-02 -1.0583386253413985e-03 0.0000000000000000e+00  6.9123414861132382e-02 2.6152748176151334e-04 0.0000000000000000e+00  6.5385307848078209e-02 -5.4132652139368762e-04 0.0000000000000000e+00  0.0000000000000000e+00 0.0000000000000000e+00 0.0000000000000000e+00  1.7097351983205054e-03 -2.6419967553940020e-04 0.0000000000000000e+00  5.0358018852441760e-03 4.8094179688843824e-04 0.0000000000000000e+00  6.5384818682546003e-02 5.5229458542949649e-04 0.0000000000000000e+00  5.4377258572323832e-03 -5.3252470222613362e-04 0.0000000000000000e+00  6.7281555268053059e-02 5.4132861970135500e-04 0.0000000000000000e+00  3.5395371559855844e-03 -5.2550940306038830e-04 0.0000000000000000e+00  6.3568151751402222e-02 5.1738649153759545e-04 0.0000000000000000e+00  1.4386538692885847e-03 1.6074571984404096e-04 0.0000000000000000e+00  6.9392801697562137e-02 -1.5660766180111143e-04 0.0000000000000000e+00  5.1457844758494679e-02 5.4625278133590060e-04 0.0000000000000000e+00  5.9177447385428496e-02 5.4193078961112988e-04 0.0000000000000000e+00  1.5944466136886777e-02 5.5567382006659939e-04 0.0000000000000000e+00  2.3663104622525757e-02 5.5813537168120694e-04 0.0000000000000000e+00  1.1258159400195322e-02 -5.1402198638675735e-04 0.0000000000000000e+00  2.8246076917528833e-02 -5.0752549923238697e-04 0.0000000000000000e+00  3.2541266248498076e-02 5.5687155854149356e-04 0.0000000000000000e+00  3.7125552593284365e-02 -5.1048685316822172e-04 0.0000000000000000e+00  4.1419723033626607e-02 5.5267861097717545e-04 0.0000000000000000e+00  4.6776446017690085e-02 -5.1611526324830525e-04 0.0000000000000000e+00  1.9610505884994318e-02 -5.0811913887516377e-04 0.0000000000000000e+00  5.5127772248569601e-02 -5.2154655874476238e-04 0.0000000000000000e+00  0.0000000000000000e+00 0.0000000000000000e+00 0.0000000000000000e+00  7.0826263607033230e-02 0.0000000000000000e+00 0.0000000000000000e+00  6.0338659277256901e-02 -5.2622929126036383e-04 0.0000000000000000e+00  5.4881444912106517e-02 5.4398156359382441e-04 0.0000000000000000e+00  2.4822201398948349e-02 -5.0727795126325533e-04 0.0000000000000000e+00  1.9367617733094682e-02 5.5725405349388367e-04 0.0000000000000000e+00  2.8102148932659096e-02 5.5796036712886456e-04 0.0000000000000000e+00  3.3701789121479094e-02 -5.0900965024169549e-04 0.0000000000000000e+00  3.6980458349839908e-02 5.5504730587265286e-04 0.0000000000000000e+00  4.2581082549394515e-02 -5.1347518263917798e-04 0.0000000000000000e+00  4.7018413960495671e-02 5.4919310608204431e-04 0.0000000000000000e+00  1.1505710618391006e-02 5.5308797472458974e-04 0.0000000000000000e+00  1.4782828716689922e-02 -5.1042009200542447e-04 0.0000000000000000e+00  5.0300717455121706e-02 -5.1843285035735450e-04 0.0000000000000000e+00  6.8230406637664305e-03 5.5889483420252920e-04 0.0000000000000000e+00  7.2078629164086718e-03 -5.6693668844763894e-04 0.0000000000000000e+00  6.3615880919842313e-02 -5.7593064474536885e-04 0.0000000000000000e+00  5.1973975443591447e-02 -6.3762098008796563e-04 0.0000000000000000e+00  1.6455799680470402e-02 -6.2753074933819203e-04 0.0000000000000000e+00  3.4301847043647837e-03 6.1658782732154681e-04 0.0000000000000000e+00  6.6014176996754048e-02 5.6143935427823255e-05 0.0000000000000000e+00  6.7048865896250351e-02 -5.8109472341209985e-04 0.0000000000000000e+00  4.8204636853049453e-03 -4.0825779514880253e-05 0.0000000000000000e+00  4.9839698904328850e-02 7.0964784662322236e-04 0.0000000000000000e+00  1.4327216538257489e-02 7.1696157011657473e-04 0.0000000000000000e+00  5.8721412539179188e-02 -6.8651113262911570e-04 0.0000000000000000e+00  2.3204176003242986e-02 -6.6971013764687318e-04 0.0000000000000000e+00  2.9827581536919761e-02 -6.6031547670782531e-04 0.0000000000000000e+00  3.2084046812304069e-02 -6.7077800581564475e-04 0.0000000000000000e+00  3.8707156733540672e-02 -6.6376298513822840e-04 0.0000000000000000e+00  4.0963531161809869e-02 -6.7484905194362425e-04 0.0000000000000000e+00  4.5394090346315946e-02 6.9669522989073286e-04 0.0000000000000000e+00  9.8824838812585220e-03 6.9981072109794832e-04 0.0000000000000000e+00  5.6502632801630884e-02 -1.0551568982045542e-03 0.0000000000000000e+00  2.0983839892587959e-02 -1.0405645576348484e-03 0.0000000000000000e+00  4.5287013364728838e-02 -6.7747680642440554e-04 0.0000000000000000e+00  9.7677076931185179e-03 -6.7977485742282270e-04 0.0000000000000000e+00  5.6498401490639061e-02 1.0757435753794211e-03 0.0000000000000000e+00  2.0985676633898262e-02 1.0903680195346274e-03 0.0000000000000000e+00  2.5424228177486574e-02 1.0908463535991586e-03 0.0000000000000000e+00  2.9862927019487118e-02 1.0903000153312690e-03 0.0000000000000000e+00  3.4301774491267339e-02 1.0889097754343833e-03 0.0000000000000000e+00  3.8740768730198272e-02 1.0868617528746549e-03 0.0000000000000000e+00  4.3179910653612368e-02 1.0843391850526723e-03 0.0000000000000000e+00  6.0938685334174618e-02 1.0758483771564249e-03 0.0000000000000000e+00  6.9567806007575575e-02 6.4222655169519991e-04 0.0000000000000000e+00  1.2540289339121118e-03 6.7562097802407886e-04 0.0000000000000000e+00  6.9557085883550723e-02 -4.0453838080999857e-04 0.0000000000000000e+00  1.2168070756194979e-03 -6.2253400211857593e-04 0.0000000000000000e+00  9.8859262957436342e-03 2.7735598295341866e-04 0.0000000000000000e+00  5.8559427350621078e-02 1.7155239299056790e-04 0.0000000000000000e+00  2.3044460819329322e-02 1.8781557098469630e-04 0.0000000000000000e+00  3.1923122585027788e-02 1.8680157303504512e-04 0.0000000000000000e+00  4.0801878882894695e-02 1.8275784579297382e-04 0.0000000000000000e+00  5.2407444245666068e-02 -3.7983593853275039e-05 0.0000000000000000e+00  1.6891714247969924e-02 -2.7359295378931333e-05 0.0000000000000000e+00  1.3979167426251453e-02 -2.9133517948780410e-05 0.0000000000000000e+00  2.7483782242527156e-02 1.8777919417482781e-04 0.0000000000000000e+00  3.6362492189704686e-02 1.8506599963436502e-04 0.0000000000000000e+00  4.9494816828601483e-02 -3.6056110990974571e-05 0.0000000000000000e+00  4.5400511596955392e-02 2.7539062903671869e-04 0.0000000000000000e+00  6.2947267580532415e-02 1.3685197512396387e-04 0.0000000000000000e+00  2.0445225116576538e-03 5.1687566615965497e-04 0.0000000000000000e+00  2.1037331587188193e-02 -6.0239721294022834e-04 0.0000000000000000e+00  5.6554696500313507e-02 -6.1711244251494467e-04 0.0000000000000000e+00  4.2857672941384067e-02 6.5228938699385820e-04 0.0000000000000000e+00  6.0615539042300270e-02 6.4302639020088039e-04 0.0000000000000000e+00  2.9540157698654170e-02 6.5815960896754421e-04 0.0000000000000000e+00  3.8418413561943164e-02 6.5479530918484841e-04 0.0000000000000000e+00  3.3979242174308387e-02 6.5681270325831671e-04 0.0000000000000000e+00  2.5101161119811512e-02 6.5864868615134696e-04 0.0000000000000000e+00  5.3969231693729448e-02 -7.2735288778830078e-04 0.0000000000000000e+00  1.8451062817660801e-02 -7.1510307247574830e-04 0.0000000000000000e+00  4.7623686200081977e-02 -1.0494090625928184e-03 0.0000000000000000e+00  1.2102180110931600e-02 -1.0457771264647559e-03 0.0000000000000000e+00  7.9862836785042773e-03 7.6281461280180594e-04 0.0000000000000000e+00  1.0117701372614838e-02 -2.8840671682602264e-04 0.0000000000000000e+00  4.5635193962785259e-02 -2.8825545579216476e-04 0.0000000000000000e+00  5.0344204429826671e-02 3.5443407453858596e-04 0.0000000000000000e+00  1.4830195022403379e-02 3.6246208596822752e-04 0.0000000000000000e+00  2.3427942981841345e-02 -2.7450917538396368e-04 0.0000000000000000e+00  5.8944017422985953e-02 -2.9142369394925946e-04 0.0000000000000000e+00  3.2307254181338403e-02 -2.7568240240649579e-04 0.0000000000000000e+00  4.1186398934093732e-02 -2.7982112970501434e-04 0.0000000000000000e+00  6.8258152597202401e-02 -6.1556814661628827e-04 0.0000000000000000e+00  5.6261917575995544e-02 6.5322035750566053e-04 0.0000000000000000e+00  2.0748200614335733e-02 6.6775086821163989e-04 0.0000000000000000e+00  5.4786890488158508e-03 1.0889842281048042e-03 0.0000000000000000e+00  2.9327648971798768e-02 -3.1236364372307866e-04 0.0000000000000000e+00  3.8206888605812415e-02 -3.1567198635873986e-04 0.0000000000000000e+00  4.7894275903688659e-02 -6.8395506674092071e-04 0.0000000000000000e+00  1.2375145085810144e-02 -6.7967867060111692e-04 0.0000000000000000e+00  1.3636990483168077e-02 -6.7030413387059607e-04 0.0000000000000000e+00  4.9155857745663570e-02 -6.7666734569774272e-04 0.0000000000000000e+00  5.6359749643299109e-02 -2.3868853765661292e-04 0.0000000000000000e+00  2.0843566126095961e-02 -2.2408621153254842e-04 0.0000000000000000e+00  3.0127418917934020e-02 2.4849197567665883e-05 0.0000000000000000e+00  3.9006313691400327e-02 2.1299298292913970e-05 0.0000000000000000e+00  1.3085683676470715e-02 7.1618127568612874e-04 0.0000000000000000e+00  4.8597960877691304e-02 7.1047097459503938e-04 0.0000000000000000e+00  4.3124584111360810e-02 -1.7894673506457521e-04 0.0000000000000000e+00  3.4245548482403881e-02 -1.7435295929021141e-04 0.0000000000000000e+00  2.5366402799208869e-02 -1.7240311153366082e-04 0.0000000000000000e+00  6.0882662555979440e-02 -1.9114201588770800e-04 0.0000000000000000e+00  1.7160261241079722e-02 7.1861528340505640e-04 0.0000000000000000e+00  5.2673204007273898e-02 7.0775781089842430e-04 0.0000000000000000e+00  7.9250137694922701e-03 1.6088046649000457e-05 0.0000000000000000e+00  1.2048869898880460e-02 2.1828918694448237e-04 0.0000000000000000e+00  4.7563242230011550e-02 2.1398705477326067e-04 0.0000000000000000e+00  1.8823100405751202e-02 2.2223983089356302e-04 0.0000000000000000e+00  5.4337962374519842e-02 2.0950386139306074e-04 0.0000000000000000e+00  8.4250673465088126e-03 -6.8460946147102446e-04 0.0000000000000000e+00  4.3797128258938368e-02 -6.7654149721361372e-04 0.0000000000000000e+00  3.4917764721516059e-02 -6.7182283026924960e-04 0.0000000000000000e+00  2.6038017409642556e-02 -6.6963737912043638e-04 0.0000000000000000e+00  6.1554224903472059e-02 -6.9148204351228849e-04 0.0000000000000000e+00  3.6524394174959840e-02 -1.0429763485735842e-03 0.0000000000000000e+00  2.7644297890207954e-02 -1.0402420893985587e-03 0.0000000000000000e+00  1.8766454444965053e-02 1.0896727472323707e-03 0.0000000000000000e+00  5.4278439933207537e-02 1.0771220749635649e-03 0.0000000000000000e+00  3.6575682135224642e-02 -1.7923402166328988e-04 0.0000000000000000e+00  2.7696560822431212e-02 -1.7644969826049596e-04 0.0000000000000000e+00  6.3306869247086298e-02 -2.1745486252922438e-04 0.0000000000000000e+00  1.2108429742440573e-02 1.0860475864947995e-03 0.0000000000000000e+00  4.7619197781525763e-02 1.0815256379925048e-03 0.0000000000000000e+00  6.3154697272333013e-02 1.0802831617493912e-03 0.0000000000000000e+00  6.2464013317612976e-02 7.1420020508405771e-04 0.0000000000000000e+00  1.6052430484271844e-02 -2.8723599139714916e-04 0.0000000000000000e+00  5.1569228216483333e-02 -2.9686875182619401e-04 0.0000000000000000e+00  6.6345234494996186e-02 -3.0138754997249888e-04 0.0000000000000000e+00  3.2082335192225295e-02 1.0896915186370498e-03 0.0000000000000000e+00  3.1386773156286227e-02 7.2548084605497849e-04 0.0000000000000000e+00  2.3204937360682885e-02 1.0907343873075915e-03 0.0000000000000000e+00  2.2508892840078572e-02 7.2625009228617220e-04 0.0000000000000000e+00  4.0960323078945496e-02 1.0856445301263072e-03 0.0000000000000000e+00  4.0265041342753730e-02 7.2159229909022032e-04 0.0000000000000000e+00  5.8718629083810397e-02 1.0749200440972610e-03 0.0000000000000000e+00  5.8022801441395273e-02 7.1051421295125871e-04 0.0000000000000000e+00  3.6521255586027326e-02 1.0879508107125254e-03 0.0000000000000000e+00  3.5825858725719674e-02 7.2383404405217588e-04 0.0000000000000000e+00  2.7643562644291943e-02 1.0906807071388144e-03 0.0000000000000000e+00  2.6947784100605832e-02 7.2634780183667119e-04 0.0000000000000000e+00  1.0307697303823585e-03 -3.3256434692070834e-04 0.0000000000000000e+00  6.9805811132742548e-02 3.1164533264006186e-04 0.0000000000000000e+00  2.5125810107694154e-02 2.9532445255620943e-04 0.0000000000000000e+00  3.4004358337211361e-02 2.9346956805103631e-04 0.0000000000000000e+00  6.0641115415616696e-02 2.7884450401958148e-04 0.0000000000000000e+00  5.4501926295565245e-02 -2