<?xml version="1.0"?>
<VTKFile type="UnstructuredGrid"  version="0.1"  >
<UnstructuredGrid>
<Piece  NumberOfPoints="820" NumberOfCells="1464">
<Points>
<DataArray  type="Float64"  NumberOfComponents="3"  format="ascii">0 0.1 0  0 0 0  1 0 0  1 0.1 0  0.5 0 0  0.5 0.1 0  0.25 0 0  0.25 0.1 0  0.75 0.1 0  0.75 0 0  0.375 0.1 0  0.375 0 0  0.125 0 0  0.125 0.1 0  0.625 0 0  0.625 0.1 0  0.875 0.1 0  0.875 0 0  0.6875 0.1 0  0.6875 0 0  0.5625 0 0  0.5625 0.1 0  0.0625 0.1 0  0.0625 0 0  0.1875 0.1 0  0.1875 0 0  0.3125 0 0  0.3125 0.1 0  0.4375 0.1 0  0.4375 0 0  0.8125 0 0  0.8125 0.1 0  0.9375 0.1 0  0.9375 0 0  0.84375 0.05000000000000001 0  0.78125 0.05 0  0.34375 0.05000000000000001 0  0.28125 0.05 0  0.15625 0.05 0  0.21875 0.05000000000000001 0  0 0.05 0  0.09375 0.05000000000000001 0  0.40625 0.05 0  0.46875 0.05000000000000001 0  0.53125 0.05 0  0.59375 0.05000000000000001 0  0.65625 0.05 0  0.71875 0.05000000000000001 0  0.90625 0.05 0  1 0.05 0  0.046875 0.04453125000000001 0  0.953125 0.05546875 0  0.96875 0 0  0.03125 0.1 0  0.03125 0 0  0.96875 0.1 0  1 0.07500000000000001 0  0.875 0.06523437500000001 0  0.8715625 0.03261718750000001 0  0.84375 0 0  0.90625 0.1 0  0.625 0.06523437500000001 0  0.6215625 0.03261718750000001 0  0.59375 0 0  0.6875 0.034765625 0  0.6840625 0.0673828125 0  0.65625 0.1 0  0.71875 0 0  0.5625 0.06523437500000001 0  0.5590625 0.03261718750000001 0  0.53125 0 0  0.65625 0 0  0.59375 0.1 0  0.5 0.06523437500000001 0  0.4965625 0.03261718750000001 0  0.46875 0 0  0.53125 0.1 0  0.4375 0.06523437500000001 0  0.4340625 0.03261718750000001 0  0.40625 0 0  0.46875 0.1 0  0.375 0.06523437500000001 0  0.3715625 0.03261718750000001 0  0.34375 0 0  0.40625 0.1 0  0.09375 0 0  0.09375 0.1 0  0.125 0.06523437500000001 0  0.1215625 0.03261718750000001 0  0.1875 0.034765625 0  0.1840625 0.0673828125 0  0.15625 0.1 0  0.21875 0 0  0.15625 0 0  0.28125 0.1 0  0.3125 0.06523437500000001 0  0.3090625 0.03261718750000001 0  0.28125 0 0  0.25 0.034765625 0  0.2534375 0.0673828125 0  0.21875 0.1 0  0.34375 0.1 0  0.78125 0.1 0  0.8125 0.06523437500000001 0  0.8090625 0.03261718750000001 0  0.78125 0 0  0.75 0.034765625 0  0.7534375 0.0673828125 0  0.71875 0.1 0  0.90625 0 0  0.84375 0.1 0  0.9740776699029127 0.03143583131067961 0  0.921875 0.075 0  0 0.025 0  0.02592233009708738 0.06856416868932039 0  0.0725 0.028515625 0  0.921875 0.025 0  0.078125 0.07500000000000001 0  0.9484670937186905 0.0242372460741816 0  0.05153290628130947 0.07576275392581842 0  0.8963594872172794 0.02643561701079966 0  0.02229817708333334 0.0375 0  0.9777018229166666 0.06250000000000001 0  0.72590087890625 0.025 0  0.8345789124085022 0.025 0  0.22590087890625 0.025 0  0.3345789124085023 0.025 0  0.15996337890625 0.075 0  0.39909912109375 0.075 0  0.4595789124085023 0.025 0  0.52409912109375 0.075 0  0.5845789124085022 0.025 0  0.65996337890625 0.075 0  0.27753662109375 0.075 0  0.77753662109375 0.075 0  0 0.07500000000000001 0  1 0.025 0  0.85090087890625 0.07500000000000001 0  0.77409912109375 0.025 0  0.35090087890625 0.07500000000000001 0  0.27409912109375 0.025 0  0.3970789124085022 0.025 0  0.47590087890625 0.07500000000000001 0  0.5220789124085022 0.025 0  0.60090087890625 0.07500000000000001 0  0.66340087890625 0.025 0  0.16340087890625 0.025 0  0.2095789124085023 0.07500000000000001 0  0.7095789124085022 0.07500000000000001 0  0.0974991439537346 0.02496950333675565 0  0.1029665898617512 0.07685681883640554 0  0.8970334101382489 0.07685681883640554 0  0.7331321502083639 0.0805418246751822 0  0.2331321502083639 0.08054182467518221 0  0.04967773437499999 0.02050781250000001 0  0.9302821601941748 0.04763728762135922 0  0.9453125 0.07773437499999999 0  0.06981448887637284 0.05242311804773303 0  0.703125 0.0173828125 0  0.203125 0.0173828125 0  0.828125 0.08261718750000001 0  0.328125 0.08261718750000001 0  0.4213608787615672 0.08215505604972331 0  0.453125 0.08261718750000001 0  0.5463608787615671 0.08215505604972331 0  0.578125 0.08261718750000001 0  0.6405370048634059 0.0181271643224308 0  0.1405370048634059 0.0181271643224308 0  0.796875 0.1 0  0.296875 0.1 0  0.6389903131525874 0.08261718750000001 0  0.1389903131525873 0.08261718750000001 0  0.796875 0 0  0.296875 0 0  0.359375 0 0  0.421875 0 0  0.484375 0 0  0.546875 0 0  0.609375 0 0  0.859375 0 0  0.984375 0 0  0.015625 0 0  0.9808265015870887 0.08306437698386088 0  0.015625 0.1 0  0.140615310157384 0.03789815460447876 0  0.8258710430305984 0.04237660226422156 0  0.3258710430305984 0.04237660226422154 0  0.4508710430305984 0.04237660226422154 0  0.5758710430305984 0.04237660226422156 0  0.73925254007477 0.05238802290978471 0  0.23925254007477 0.05238802290978471 0  0.19824745992523 0.05238802290978471 0  0.3883710430305984 0.04237660226422155 0  0.5133710430305984 0.04237660226422155 0  0.69824745992523 0.05238802290978471 0  0.6406153101573839 0.03789815460447876 0  0.8875652355519991 0.04398459561477483 0  0.03011990291140283 0.01954869700666445 0  0.2976228417042103 0.07944206017604956 0  0.7976228417042103 0.07944206017604956 0  0.6048261925064409 0.0202852140350185 0  0.8548261925064409 0.0202852140350185 0  0.4173261925064409 0.02028521403501849 0  0.5423261925064409 0.02028521403501849 0  0.479826192506441 0.02028521403501848 0  0.354826192506441 0.02028521403501848 0  0.7612196085333947 0.08469269433495656 0  0.2612196085333947 0.08469269433495656 0  0.671875 0.1 0  0.171875 0.1 0  0.1138156987561534 0.01531102667280419 0  0.1439032206506398 0.06434174268079966 0  0.6439032206506399 0.06434174268079966 0  0.7102169938849521 0.03403655887996306 0  0.2102169938849521 0.03403655887996306 0  0.331272668838501 0.06407394409179688 0  0.8312726688385009 0.06407394409179688 0  0.456272668838501 0.06407394409179688 0  0.5812726688385009 0.06407394409179688 0  0.9626931005513372 0.08290734481438196 0  0.7935362330470901 0.01983307912641665 0  0.2935362330470901 0.01983307912641665 0  0.078125 0 0  0.4143262322415116 0.06583278773374907 0  0.5393262322415115 0.06583278773374907 0  0.6756954193768612 0.08284197013692297 0  0.1756954193768612 0.08284197013692297 0  0.1934564775596677 0.08246105735569852 0  0.6934564775596677 0.0824610573556985 0  0.7948904737904949 0.06168801049385652 0  0.2948904737904949 0.06168801049385652 0  0.42558837890625 0.05 0  0.55058837890625 0.05 0  0.185643310546875 0.0173828125 0  0.685643310546875 0.0173828125 0  0.6085613945093048 0.05928612183988766 0  0.4835613945093048 0.05928612183988766 0  0.3585613945093048 0.05928612183988766 0  0.8585613945093048 0.05928612183988766 0  0.2430157823768409 0.0173828125 0  0.743015782376841 0.0173828125 0  0.11308837890625 0.05 0  0.1710613945093048 0.04071387816011236 0  0.6710613945093048 0.04071387816011236 0  0.2664386054906952 0.04071387816011236 0  0.7664386054906952 0.04071387816011236 0  0.1200872144236349 0.08261718750000001 0  0.618015782376841 0.08261718750000001 0  0.4930157823768409 0.08261718750000001 0  0.3680157823768409 0.08261718750000001 0  0.868015782376841 0.08261718750000001 0  0.515625 0.1 0  0.390625 0.1 0  0.265625 0 0  0.765625 0 0  0.516365031953596 0.05946768293606444 0  0.3913650319535959 0.05946768293606444 0  0.8926135952226929 0.06033018746614476 0  0.171875 0 0  0.671875 0 0  0.890625 0 0  0.8808652108632187 0.0171078614816925 0  0.2274441083295474 0.06456313374723947 0  0.7274441083295474 0.06456313374723946 0  0.9350285939903868 0.06406852472525566 0  0.453125 0 0  0.4433265752246126 0.01710378970181546 0  0.328125 0 0  0.3183265752246126 0.01710378970181546 0  0.578125 0 0  0.5683265752246126 0.01710378970181545 0  0.828125 0 0  0.8183265752246126 0.01710378970181545 0  0.515625 0 0  0.5058265752246126 0.01710378970181545 0  0.390625 0 0  0.3808265752246126 0.01710378970181545 0  0.01564771141956889 0.08260299286276945 0  0.9843522885804311 0.01739700713723054 0  0.3551736619148977 0.03733645281383641 0  0.4801736619148977 0.03733645281383641 0  0.8551736619148977 0.03733645281383642 0  0.7687346279121444 0.06091681090943113 0  0.2687346279121444 0.06091681090943113 0  0.6687653720878556 0.06091681090943113 0  0.1687653720878556 0.06091681090943113 0  0.6051736619148977 0.03733645281383642 0  0.2924478939734164 0.03697522410746614 0  0.7924478939734163 0.03697522410746614 0  0.8719142286486647 0.04906985056606887 0  0.6274213820068905 0.04848945596065109 0  0.4983341418505795 0.04892020701904073 0  0.3733341418505795 0.04892020701904073 0  0.3108341418505795 0.04892020701904073 0  0.8108341418505794 0.04892020701904073 0  0.6242024164762008 0.01640567476785111 0  0.3848561971730207 0.08410836408489761 0  0.5098561971730207 0.08410836408489761 0  0.2598561971730207 0.01589163591510238 0  0.7598561971730207 0.01589163591510238 0  0.890625 0.1 0  0.9582054159658413 0.03874795528975266 0  0.03565822065430611 0.08308352918541601 0  0.9643417793456939 0.016916470814584 0  0 0.0625 0  0.0168287001921521 0.05388159890776699 0  0.0417945840341587 0.06125204471024735 0  0.9831712998078479 0.04611840109223304 0  0.5622607296296599 0.08116332765030569 0  0.4372607296296599 0.08116332765030566 0  0.046875 0.1 0  0.953125 0 0  0.415919189453125 0.03668247284720479 0  0.540919189453125 0.03668247284720479 0  0.0859375 0.01393925506164327 0  0.109375 0.1 0  0.1338555271916189 0.05216484236021472 0  0.953125 0.1 0  0.140625 0 0  0.640625 0 0  0.546875 0.1 0  0.421875 0.1 0  0.203125 0 0  0.703125 0 0  0.046875 0 0  0.234375 0.1 0  0.734375 0.1 0  0.078125 0.1 0  0.921875 0 0  0.921875 0.1 0  0.828125 0.1 0  0.328125 0.1 0  0.453125 0.1 0  0.578125 0.1 0  0.640625 0.1 0  0.140625 0.1 0  0.984375 0.1 0  0.765625 0.1 0  0.265625 0.1 0  0.109375 0 0  0.203125 0.1 0  0.703125 0.1 0  0.234375 0 0  0.734375 0 0  0.609375 0.1 0  0.484375 0.1 0  0.359375 0.1 0  0.859375 0.1 0  0.03162846341645094 0.04971906156616034 0  0.9677597279973049 0.05078312969016881 0  0.8125319459969864 0.08431483734279674 0  0.3125319459969864 0.08431483734279674 0  0.01533347852251798 0.02378565849770013
[...]
<PointData  Vectors="damage"> 
<DataArray  type="Float64"  Name="damage"  NumberOfComponents="3" format="ascii">0.0000000000000000e+00 0.0000000000000000e+00 0.0000000000000000e+00  0.0000000000000000e+00 0.0000000000000000e+00 0.0000000000000000e+00  3.6829657075657279e-01 0.0000000000000000e+00 0.0000000000000000e+00  3.6829657075657279e-01 0.0000000000000000e+00 0.0000000000000000e+00  4.3384629952304595e-04 3.5071343279615379e-04 0.0000000000000000e+00  1.9521434210204009e-04 -1.5933739337707450e-04 0.0000000000000000e+00  2.6156312969442844e-05 -1.6944475992777632e-05 0.0000000000000000e+00  3.6483710003503577e-05 -2.0725598467861123e-05 0.0000000000000000e+00  3.6828991404039380e-01 6.6110766156469595e-05 0.0000000000000000e+00  3.6824058702120788e-01 6.9904092882094621e-05 0.0000000000000000e+00  5.1141824505732227e-05 -3.3354808968773086e-05 0.0000000000000000e+00  4.3156048338663298e-05 -2.9847190138104921e-05 0.0000000000000000e+00  1.1738153297866189e-05 -4.3876952346468780e-06 0.0000000000000000e+00  1.9395213065069426e-05 -8.1943908318708610e-06 0.0000000000000000e+00  3.6821602909535817e-01 1.4352168288086540e-04 0.0000000000000000e+00  3.6828267820177585e-01 1.4005158833076183e-04 0.0000000000000000e+00  3.6829459624951971e-01 1.6990322827946956e-05 0.0000000000000000e+00  3.6826741707712896e-01 2.0761159900621623e-05 0.0000000000000000e+00  3.6828670758832838e-01 1.0034224034258241e-04 0.0000000000000000e+00  3.6822806847468409e-01 1.0407303275468516e-04 0.0000000000000000e+00  3.6820068542190709e-01 1.9028716600036054e-04 0.0000000000000000e+00  3.6827498525924146e-01 1.8259027163261877e-04 0.0000000000000000e+00  1.0029168861880137e-05 -3.9395755226408841e-06 0.0000000000000000e+00  5.5505965488526992e-06 -1.6648523059129270e-07 0.0000000000000000e+00  2.8250925039194572e-05 -1.4042350554726832e-05 0.0000000000000000e+00  1.8635600500709075e-05 -1.0257209947604520e-05 0.0000000000000000e+00  3.4295388508537830e-05 -2.3697768427004597e-05 0.0000000000000000e+00  4.4084906937444348e-05 -2.7458344669155972e-05 0.0000000000000000e+00  5.9837128071164408e-05 -3.8901091891440928e-05 0.0000000000000000e+00  5.5602411935908033e-05 -3.3020850221746758e-05 0.0000000000000000e+00  3.6825370955741044e-01 4.1860162694991799e-05 0.0000000000000000e+00  3.6829257067833987e-01 3.8081242169453500e-05 0.0000000000000000e+00  3.6829587397280034e-01 3.6167836344307751e-06 0.0000000000000000e+00  3.6828167809358048e-01 7.4067091597365185e-06 0.0000000000000000e+00  3.6827706235811447e-01 2.7793537994065529e-05 0.0000000000000000e+00  3.6826918442768225e-01 5.2501635189598433e-05 0.0000000000000000e+00  4.3119759557213836e-05 -2.8834041292673713e-05 0.0000000000000000e+00  3.5261131007158694e-05 -2.2282442606733698e-05 0.0000000000000000e+00  1.9509563611851172e-05 -8.9491466958217601e-06 0.0000000000000000e+00  2.7381969266419504e-05 -1.5393111434664756e-05 0.0000000000000000e+00  0.0000000000000000e+00 0.0000000000000000e+00 0.0000000000000000e+00  1.1606951219429509e-05 -3.7285298479558914e-06 0.0000000000000000e+00  5.0546806661488847e-05 -3.4272139057941113e-05 0.0000000000000000e+00  6.2023363703831550e-05 -3.8761966269707338e-05 0.0000000000000000e+00  3.6823065876446692e-01 2.0916820887076980e-04 0.0000000000000000e+00  3.6824608895847888e-01 1.6298821992577074e-04 0.0000000000000000e+00  3.6825346098640943e-01 1.2088339284284223e-04 0.0000000000000000e+00  3.6826132322752897e-01 8.3827596250738326e-05 0.0000000000000000e+00  3.6828495380779447e-01 1.0409436822198479e-05 0.0000000000000000e+00  3.6829657075657279e-01 0.0000000000000000e+00 0.0000000000000000e+00  5.4479652834995408e-06 -8.9999204253031525e-07 0.0000000000000000e+00  3.6829151135378307e-01 2.4377617272848487e-06 0.0000000000000000e+00  3.6828883792748129e-01 3.5605222278667700e-06 0.0000000000000000e+00  5.2660978631728581e-06 -2.3738629191116924e-06 0.0000000000000000e+00  2.8688861843028101e-06 8.3873272693491022e-07 0.0000000000000000e+00  3.6829615774361535e-01 3.8247241533945775e-07 0.0000000000000000e+00  3.6829657075657279e-01 0.0000000000000000e+00 0.0000000000000000e+00  3.6828511479153664e-01 1.7613680456942327e-05 0.0000000000000000e+00  3.6827576379314581e-01 1.9872368353921261e-05 0.0000000000000000e+00  3.6826046341757113e-01 3.0452525162511289e-05 0.0000000000000000e+00  3.6829530732763338e-01 9.2457369172487416e-06 0.0000000000000000e+00  3.6825972267455093e-01 1.4092721954845879e-04 0.0000000000000000e+00  3.6823758703737247e-01 1.4427573767566835e-04 0.0000000000000000e+00  3.6820956551217876e-01 1.6535599183384561e-04 0.0000000000000000e+00  3.6824847755538609e-01 1.0230279241293502e-04 0.0000000000000000e+00  3.6826717425526134e-01 1.0315314896437959e-04 0.0000000000000000e+00  3.6828482062053969e-01 1.1954062888245230e-04 0.0000000000000000e+00  3.6823425768981849e-01 8.6243178989022762e-05 0.0000000000000000e+00  3.6825270958238682e-01 1.8460600131694449e-04 0.0000000000000000e+00  3.6822769757449603e-01 1.8998828857957521e-04 0.0000000000000000e+00  3.6817979654997079e-01 2.2788674041999304e-04 0.0000000000000000e+00  3.6822206622591752e-01 1.2320679204580104e-04 0.0000000000000000e+00  3.6827992491922545e-01 1.6148597145416521e-04 0.0000000000000000e+00  1.3184940083102190e-04 -5.0678068955193211e-05 0.0000000000000000e+00  2.2089833804877452e-04 -2.6346469227868595e-05 0.0000000000000000e+00  7.5305018239133726e-05 -2.2594431899832563e-05 0.0000000000000000e+00  3.6825762359883946e-01 1.9606621596256936e-04 0.0000000000000000e+00  5.5341726938280158e-05 -3.7147369501423723e-05 0.0000000000000000e+00  5.3439523696999612e-05 -3.5243318519652522e-05 0.0000000000000000e+00  4.8212383261112061e-05 -3.2316332457115169e-05 0.0000000000000000e+00  7.1557271063972598e-05 -4.6251449815180805e-05 0.0000000000000000e+00  4.8179967562839257e-05 -3.2215306158272063e-05 0.0000000000000000e+00  4.5204486501713890e-05 -3.0846650135464313e-05 0.0000000000000000e+00  3.8597670416229472e-05 -2.6875847795006547e-05 0.0000000000000000e+00  5.4821890763263920e-05 -3.5832668262959169e-05 0.0000000000000000e+00  8.5497066001469990e-06 -2.0118367757133983e-06 0.0000000000000000e+00  1.4749441420044574e-05 -5.8371150495657632e-06 0.0000000000000000e+00  1.6692854377694615e-05 -6.7360553905679050e-06 0.0000000000000000e+00  1.3872828063508532e-05 -5.2096974495444252e-06 0.0000000000000000e+00  2.2023232023216052e-05 -1.1499192146437180e-05 0.0000000000000000e+00  2.4619552094391542e-05 -1.2381100214585439e-05 0.0000000000000000e+00  2.3901960400276102e-05 -1.0955910672274804e-05 0.0000000000000000e+00  2.2317492570483059e-05 -1.3544800726427146e-05 0.0000000000000000e+00  1.5103420603183786e-05 -7.1786134082657487e-06 0.0000000000000000e+00  4.0364006535049874e-05 -2.4138495334864398e-05 0.0000000000000000e+00  4.0649094289850650e-05 -2.6210047804548112e-05 0.0000000000000000e+00  3.7097980612305943e-05 -2.4620889953024447e-05 0.0000000000000000e+00  3.0147296563789064e-05 -2.0359827275144042e-05 0.0000000000000000e+00  2.9789758249708605e-05 -1.8254636147581130e-05 0.0000000000000000e+00  3.3503448893239109e-05 -1.9868756920697304e-05 0.0000000000000000e+00  3.2440453418127799e-05 -1.7326935106357090e-05 0.0000000000000000e+00  4.7649677488983002e-05 -3.0575850411934677e-05 0.0000000000000000e+00  3.6829134739175273e-01 5.1253511777212946e-05 0.0000000000000000e+00  3.6827899959131977e-01 3.8806572234541823e-05 0.0000000000000000e+00  3.6826586043917270e-01 4.1442321463733360e-05 0.0000000000000000e+00  3.6824703835448791e-01 5.5044906388480265e-05 0.0000000000000000e+00  3.6825778450671726e-01 6.8030955120497365e-05 0.0000000000000000e+00  3.6827410221628087e-01 6.5105289368817042e-05 0.0000000000000000e+00  3.6828841096030657e-01 8.2470426261702735e-05 0.0000000000000000e+00  3.6827452746330674e-01 1.3090414500847804e-05 0.0000000000000000e+00  3.6829361802626032e-01 2.6575853533319200e-05 0.0000000000000000e+00  3.6829252077967689e-01 1.3030268824997195e-06 0.0000000000000000e+00  3.6829122745448128e-01 6.4988914551746859e-06 0.0000000000000000e+00  0.0000000000000000e+00 0.0000000000000000e+00 0.0000000000000000e+00  3.3627065297490531e-06 -8.8443056477922443e-07 0.0000000000000000e+00  7.8949860342842157e-06 -1.5770808408900049e-06 0.0000000000000000e+00  3.6828258920500950e-01 8.4152751977714211e-06 0.0000000000000000e+00  1.0938675488456705e-05 -3.7320632781321293e-06 0.0000000000000000e+00  3.6828730653769814e-01 4.3344135409318073e-06 0.0000000000000000e+00  7.1934189578975691e-06 -2.2946697086358994e-06 0.0000000000000000e+00  3.6827838283943554e-01 1.3693605479955084e-05 0.0000000000000000e+00  2.3682636790575706e-06 -9.9614417341464847e-09 0.0000000000000000e+00  3.6829461682726344e-01 2.5843016562729024e-07 0.0000000000000000e+00  3.6824898124193522e-01 8.1018072040520700e-05 0.0000000000000000e+00  3.6826723864802324e-01 3.2105720588482105e-05 0.0000000000000000e+00  2.5790800539550772e-05 -1.5235721769216423e-05 0.0000000000000000e+00  3.9707051425445680e-05 -2.6980046240389846e-05 0.0000000000000000e+00  2.2141631930200696e-05 -1.0277824476009451e-05 0.0000000000000000e+00  5.1739996515960658e-05 -3.4428695441065937e-05 0.0000000000000000e+00  5.9413168651427379e-05 -3.3656347755622710e-05 0.0000000000000000e+00  3.6824440757893645e-01 2.0669481655704157e-04 0.0000000000000000e+00  3.6822674686732132e-01 1.7059549480419819e-04 0.0000000000000000e+00  3.6826943163101439e-01 1.1775571588256926e-04 0.0000000000000000e+00  3.7296209996207784e-05 -2.2811428231058784e-05 0.0000000000000000e+00  3.6827989446043080e-01 5.3431879441087557e-05 0.0000000000000000e+00  0.0000000000000000e+00 0.0000000000000000e+00 0.0000000000000000e+00  3.6829657075657279e-01 0.0000000000000000e+00 0.0000000000000000e+00  3.6828584564699679e-01 2.4638278958127106e-05 0.0000000000000000e+00  3.6825695727395108e-01 5.6882435503542214e-05 0.0000000000000000e+00  4.6187037593152316e-05 -3.0390058619227425e-05 0.0000000000000000e+00  3.1846939346716344e-05 -2.0543194482146556e-05 0.0000000000000000e+00  4.8057067197148464e-05 -3.2778075754456782e-05 0.0000000000000000e+00  6.5450385957955867e-05 -4.5743939797856905e-05 0.0000000000000000e+00  3.6819007843131496e-01 2.3131836539014368e-04 0.0000000000000000e+00  3.6826382220862974e-01 1.5724622187490153e-04 0.0000000000000000e+00  3.6823893593494084e-01 1.1740866844312310e-04 0.0000000000000000e+00  1.8211157866036638e-05 -8.7225057308444996e-06 0.0000000000000000e+00  2.8673821111243263e-05 -1.5359049079300289e-05 0.0000000000000000e+00  3.6827395768231236e-01 8.8106005433582647e-05 0.0000000000000000e+00  1.0551352506203297e-05 -3.0746404634844026e-06 0.0000000000000000e+00  1.4524513412909685e-05 -5.4738936811865061e-06 0.0000000000000000e+00  3.6828981335267957e-01 1.1643899721289779e-05 0.0000000000000000e+00  3.6827895645656827e-01 7.5126132998940703e-05 0.0000000000000000e+00  3.2269396119413528e-05 -1.8129879477025811e-05 0.0000000000000000e+00  5.0642329425733185e-06 -2.1699289679852926e-07 0.0000000000000000e+00  3.6828767144169050e-01 5.8849667606367215e-06 0.0000000000000000e+00  3.6829325593231199e-01 2.8138252620067627e-06 0.0000000000000000e+00  8.6622851432346561e-06 -2.3099136921066112e-06 0.0000000000000000e+00  3.6824099265380483e-01 9.4028784580240906e-05 0.0000000000000000e+00  2.2233415244982092e-05 -1.2502647836367347e-05 0.0000000000000000e+00  3.6828679948679899e-01 3.2382390430772195e-05 0.0000000000000000e+00  4.4196454812576145e-05 -2.8444161626279500e-05 0.0000000000000000e+00  5.5013862392804659e-05 -3.6394992262222066e-05 0.0000000000000000e+00  6.0164729272876193e-05 -4.0152910687637962e-05 0.0000000000000000e+00  3.6826064274242298e-01 1.9381230473647097e-04 0.0000000000000000e+00  3.6826642554825689e-01 1.7293855757958087e-04 0.0000000000000000e+00  3.6823084928213085e-01 1.3230724339454068e-04 0.0000000000000000e+00  1.4950199789213638e-05 -6.3355196496570496e-06 0.0000000000000000e+00  3.6829199873987811e-01 4.4466401254801823e-05 0.0000000000000000e+00  4.2246004269947787e-05 -2.5818562446626724e-05 0.0000000000000000e+00  3.6827235675548170e-01 1.3113446124688924e-04 0.0000000000000000e+00  1.9949379317412690e-05 -8.6513366762399171e-06 0.0000000000000000e+00  3.6825034945731067e-01 4.8221200937080402e-05 0.0000000000000000e+00  3.2200261612688696e-05 -2.2044984241565553e-05 0.0000000000000000e+00  4.0831220261675343e-05 -2.8402424347888964e-05 0.0000000000000000e+00  5.1390164463249694e-05 -3.3112093085524400e-05 0.0000000000000000e+00  1.0891762581561306e-04 3.7324260687650594e-06 0.0000000000000000e+00  3.6819277517524474e-01 2.0615855219881962e-04 0.0000000000000000e+00  3.6821294222370665e-01 1.5419391118965195e-04 0.0000000000000000e+00  3.6826392551711495e-01 2.5349385098837246e-05 0.0000000000000000e+00  3.6829243389422206e-01 2.0385792984162086e-06 0.0000000000000000e+00  1.5584993120348616e-06 8.3177578677808390e-07 0.0000000000000000e+00  3.6829569275191154e-01 -9.3084562516934522e-08 0.0000000000000000e+00  2.7981419969695074e-06 -1.4584820700914646e-06 0.0000000000000000e+00  1.6568286750214893e-05 -7.0459531548392318e-06 0.0000000000000000e+00  3.6827204758655863e-01 3.4469872275328836e-05 0.0000000000000000e+00  4.0179083574451175e-05 -2.6753316770518947e-05 0.0000000000000000e+00  5.6472981178129370e-05 -3.6387866581428180e-05 0.0000000000000000e+00  3.6823837085572036e-01 1.7622591052395391e-04 0.0000000000000000e+00  3.6826509339750557e-01 7.2791573332443846e-05 0.0000000000000000e+00  3.0205756430103203e-05 -1.7731789440504019e-05 0.0000000000000000e+00  2.5026960213619886e-05 -1.3282825083041700e-05 0.0000000000000000e+00  4.7989211993957434e-05 -3.2633744546071305e-05 0.0000000000000000e+00  3.6815724977423303e-01 2.3511050867943949e-04 0.0000000000000000e+00  3.6826008131584792e-01 9.5296151793081553e-05 0.0000000000000000e+00  3.6824371064599348e-01 1.3141685105016958e-04 0.0000000000000000e+00  3.6828113171181759e-01 1.5029585738584515e-05 0.0000000000000000e+00  2.9756265941366968e-06 3.2758061716667749e-07 0.0000000000000000e+00  4.0218650648905658e-05 -2.5155430847813263e-05 0.0000000000000000e+00  3.6828341482803006e-01 4.4488836856041914e-05 0.0000000000000000e+00  3.6822652912108833e-01 1.5628320774503860e-04 0.0000000000000000e+00  3.6826928028290601e-01 2.5538569278386030e-05 0.0000000000000000e+00  5.0734438399537449e-05 -3.3996624366346139e-05 0.0000000000000000e+00  3.6821149551457233e-01 2.0704635618544671e-04 0.0000000000000000e+00  7.3294316868412795e-05 -2.4247801790619311e-05 0.0000000000000000e+00  4.1994513861079743e-05 -2.8805903028098295e-05 0.0000000000000000e+00  3.6828311895489180e-01 6.0896215150797197e-05 0.0000000000000000e+00  3.6260245254406473e-05 -2.1378716788624214e-05 0.0000000000000000e+00  3.6828577506850252e-01 1.0976061740606118e-04 0.0000000000000000e+00  2.6095997193034903e-05 -1.2464921111335372e-05 0.0000000000000000e+00  1.1721574789793102e-05 -3.9802702875279617e-06 0.0000000000000000e+00  1.9109013869366087e-05 -8.3557481632496712e-06 0.0000000000000000e+00  3.6826112770791108e-01 1.2840640550439798e-04 0.0000000000000000e+00  3.6825141001680778e-01 8.9238207089984906e-05 0.0000000000000000e+00  2.4752483497150858e-05 -1.3872946832253223e-05 0.0000000000000000e+00  4.2842819588165626e-05 -2.8097114265238722e-05 0.0000000000000000e+00  3.6828043822283879e-01 3.1713208800646599e-05 0.0000000000000000e+00  5.8385062292913447e-05 -3.9242143361585930e-05 0.0000000000000000e+00  3.6825439316249742e-01 1.7139406387292036e-04 0.0000000000000000e+00  3.6829475960850133e-01 9.0653016089561627e-07 0.0000000000000000e+00  3.6825805181589955e-01 4.8501528284371152e-05 0.0000000000000000e+00  3.3817305832798077e-05 -2.2464025988231424e-05 0.0000000000000000e+00  7.0197999805422642e-06 -1.0141807432750298e-06 0.0000000000000000e+00  5.2613549708667006e-05 -3.5306846207602298e-05 0.0000000000000000e+00  3.6824756822991067e-01 2.0007691952806726e-04 0.0000000000000000e+00  3.6827559542826982e-01 1.0778774902885244e-04 0.0000000000000000e+00  2.4969337874462279e-05 -1.2143027678019824e-05 0.0000000000000000e+00  2.7294810165694663e-05 -1.3945265716279213e-05 0.0000000000000000e+00  3.6827684057259852e-01 9.7173286436366175e-05 0.0000000000000000e+00  3.6827577862392541e-01 4.6146769283460557e-05 0.0000000000000000e+00  3.8124101415420308e-05 -2.4204958340604086e-05 0.0000000000000000e+00  5.2765476994953715e-05 -3.5599249065809327e-05 0.0000000000000000e+00  3.6823921920303887e-01 1.9466939662632961e-04 0.0000000000000000e+00  2.0143597333506348e-05 -1.0678024661922005e-05 0.0000000000000000e+00  3.6823798573152144e-01 1.0422657143390221e-04 0.0000000000000000e+00  3.6825406689439077e-01 1.5233306722413684e-04 0.0000000000000000e+00  6.9343027672711063e-05 -4.3543768724769922e-05 0.0000000000000000e+00  4.5739087173232869e-05 -3.0570631776847919e-05 0.0000000000000000e+00  3.6828172371836998e-01 2.2631877963829686e-05 0.0000000000000000e+00  2.7131291423321335e-05 -1.6829971317627107e-05 0.0000000000000000e+00  3.6824795098753932e-01 7.2440552530963288e-05 0.0000000000000000e+00  1.4056133551414574e-05 -5.1693838451320166e-06 0.0000000000000000e+00  2.0545248305061524e-05 -1.0048838930079952e-05 0.0000000000000000e+00  3.6824967991752350e-01 1.1198767599522522e-04 0.0000000000000000e+00  3.2463887388422513e-05 -2.0297638962322572e-05 0.0000000000000000e+00  3.6826300097942888e-01 5.9743884837990476e-05 0.0000000000000000e+00  1.7326852368326857e-05 -7.0467243855732410e-06 0.0000000000000000e+00  3.6827050632142461e-01 1.4523023020665565e-04 0.0000000000000000e+00  8.6088545839611160e-05 -6.3555567043262751e-05 0.0000000000000000e+00  4.8852143940531802e-05 -3.2175343966339897e-05 0.0000000000000000e+00  3.6828935407975022e-01 1.9230796343417736e-05 0.0000000000000000e+00  3.6818489059236531e-01 1.5660265801549915e-04 0.0000000000000000e+00  5.2930608300853194e-05 -3.4612940489855685e-05 0.0000000000000000e+00  2.8134387511362766e-05 -1.8655678966832461e-05 0.0000000000000000e+00  3.6824378334680286e-01 6.2266221507322741e-05 0.0000000000000000e+00  3.6821272156691359e-01 2.1722408067413222e-04 0.0000000000000000e+00  4.9583702633606411e-05 -3.3383380763640820e-05 0.0000000000000000e+00  3.6828561392318071e-01 1.3198948006709857e-05 0.0000000000000000e+00  1.6856992487471272e-05 -8.6816248688321066e-06 0.0000000000000000e+00  3.6822502423404013e-01 1.1346434299089378e-04 0.0000000000000000e+00  3.6827094932128634e-01 1.6668207620661888e-05 0.0000000000000000e+00  3.6827328235435230e-01 1.8099040002094038e-05 0.0000000000000000e+00  2.9926071950959010e-05 -1.6895790573242569e-05 0.0000000000000000e+00  3.6827005676912417e-01 7.8600836566774810e-05 0.0000000000000000e+00  3.6829064882754720e-01 4.5591791469219020e-06 0.0000000000000000e+00  6.2286934356533706e-05 -3.0848115343256654e-05 0.0000000000000000e+00  5.5692590927651390e-05 -3.4250504880892389e-05 0.0000000000000000e+00  3.6422356732516124e-05 -2.5306956448900882e-05 0.0000000000000000e+00  3.6803959467157647e-05 -2.4993362925649392e-05 0.0000000000000000e+00  3.6820562480098462e-01 1.7740658135566347e-04 0.0000000000000000e+00  3.6821732934292467e-01 1.8368768938013927e-04 0.0000000000000000e+00  3.6825704677035354e-01 3.5974423127413795e-05 0.0000000000000000e+00  3.6826146860768977e-01 3.8557967685908831e-05 0.0000000000000000e+00  3.6814580928350704e-01 2.6542137400113242e-04 0.0000000000000000e+00  3.6798103342794464e-01 2.1711166014606225e-04 0.0000000000000000e+00  4.5577966058618207e-05 -3.1154476422867574e-05 0.0000000000000000e+00  4.5344043913109109e-05 -3.1103490042557548e-05 0.0000000000000000e+00  2.1849959341896868e-06 -8.0144990597166330e-07 0.0000000000000000e+00  3.6829368844582672e-01 9.5811885235291032e-07 0.0000000000000000e+00  4.3475871704733806e-05 -2.9485404972252245e-05 0.0000000000000000e+00  7.2123417672169515e-05 -3.4778483596841403e-05 0.0000000000000000e+00  3.6827459817633351e-01 2.4584461768931158e-05 0.0000000000000000e+00  3.682726386588