<?xml version="1.0"?>
<VTKFile type="UnstructuredGrid"  version="0.1"  >
<UnstructuredGrid>
<Piece  NumberOfPoints="820" NumberOfCells="1464">
<Points>
<DataArray  type="Float64"  NumberOfComponents="3"  format="ascii">0 0.1 0  0 0 0  1 0 0  1 0.1 0  0.5 0 0  0.5 0.1 0  0.25 0 0  0.25 0.1 0  0.75 0.1 0  0.75 0 0  0.375 0.1 0  0.375 0 0  0.125 0 0  0.125 0.1 0  0.625 0 0  0.625 0.1 0  0.875 0.1 0  0.875 0 0  0.6875 0.1 0  0.6875 0 0  0.5625 0 0  0.5625 0.1 0  0.0625 0.1 0  0.0625 0 0  0.1875 0.1 0  0.1875 0 0  0.3125 0 0  0.3125 0.1 0  0.4375 0.1 0  0.4375 0 0  0.8125 0 0  0.8125 0.1 0  0.9375 0.1 0  0.9375 0 0  0.84375 0.05000000000000001 0  0.78125 0.05 0  0.34375 0.05000000000000001 0  0.28125 0.05 0  0.15625 0.05 0  0.21875 0.05000000000000001 0  0 0.05 0  0.09375 0.05000000000000001 0  0.40625 0.05 0  0.46875 0.05000000000000001 0  0.53125 0.05 0  0.59375 0.05000000000000001 0  0.65625 0.05 0  0.71875 0.05000000000000001 0  0.90625 0.05 0  1 0.05 0  0.046875 0.04453125000000001 0  0.953125 0.05546875 0  0.96875 0 0  0.03125 0.1 0  0.03125 0 0  0.96875 0.1 0  1 0.07500000000000001 0  0.875 0.06523437500000001 0  0.8715625 0.03261718750000001 0  0.84375 0 0  0.90625 0.1 0  0.625 0.06523437500000001 0  0.6215625 0.03261718750000001 0  0.59375 0 0  0.6875 0.034765625 0  0.6840625 0.0673828125 0  0.65625 0.1 0  0.71875 0 0  0.5625 0.06523437500000001 0  0.5590625 0.03261718750000001 0  0.53125 0 0  0.65625 0 0  0.59375 0.1 0  0.5 0.06523437500000001 0  0.4965625 0.03261718750000001 0  0.46875 0 0  0.53125 0.1 0  0.4375 0.06523437500000001 0  0.4340625 0.03261718750000001 0  0.40625 0 0  0.46875 0.1 0  0.375 0.06523437500000001 0  0.3715625 0.03261718750000001 0  0.34375 0 0  0.40625 0.1 0  0.09375 0 0  0.09375 0.1 0  0.125 0.06523437500000001 0  0.1215625 0.03261718750000001 0  0.1875 0.034765625 0  0.1840625 0.0673828125 0  0.15625 0.1 0  0.21875 0 0  0.15625 0 0  0.28125 0.1 0  0.3125 0.06523437500000001 0  0.3090625 0.03261718750000001 0  0.28125 0 0  0.25 0.034765625 0  0.2534375 0.0673828125 0  0.21875 0.1 0  0.34375 0.1 0  0.78125 0.1 0  0.8125 0.06523437500000001 0  0.8090625 0.03261718750000001 0  0.78125 0 0  0.75 0.034765625 0  0.7534375 0.0673828125 0  0.71875 0.1 0  0.90625 0 0  0.84375 0.1 0  0.9740776699029127 0.03143583131067961 0  0.921875 0.075 0  0 0.025 0  0.02592233009708738 0.06856416868932039 0  0.0725 0.028515625 0  0.921875 0.025 0  0.078125 0.07500000000000001 0  0.9484670937186905 0.0242372460741816 0  0.05153290628130947 0.07576275392581842 0  0.8963594872172794 0.02643561701079966 0  0.02229817708333334 0.0375 0  0.9777018229166666 0.06250000000000001 0  0.72590087890625 0.025 0  0.8345789124085022 0.025 0  0.22590087890625 0.025 0  0.3345789124085023 0.025 0  0.15996337890625 0.075 0  0.39909912109375 0.075 0  0.4595789124085023 0.025 0  0.52409912109375 0.075 0  0.5845789124085022 0.025 0  0.65996337890625 0.075 0  0.27753662109375 0.075 0  0.77753662109375 0.075 0  0 0.07500000000000001 0  1 0.025 0  0.85090087890625 0.07500000000000001 0  0.77409912109375 0.025 0  0.35090087890625 0.07500000000000001 0  0.27409912109375 0.025 0  0.3970789124085022 0.025 0  0.47590087890625 0.07500000000000001 0  0.5220789124085022 0.025 0  0.60090087890625 0.07500000000000001 0  0.66340087890625 0.025 0  0.16340087890625 0.025 0  0.2095789124085023 0.07500000000000001 0  0.7095789124085022 0.07500000000000001 0  0.0974991439537346 0.02496950333675565 0  0.1029665898617512 0.07685681883640554 0  0.8970334101382489 0.07685681883640554 0  0.7331321502083639 0.0805418246751822 0  0.2331321502083639 0.08054182467518221 0  0.04967773437499999 0.02050781250000001 0  0.9302821601941748 0.04763728762135922 0  0.9453125 0.07773437499999999 0  0.06981448887637284 0.05242311804773303 0  0.703125 0.0173828125 0  0.203125 0.0173828125 0  0.828125 0.08261718750000001 0  0.328125 0.08261718750000001 0  0.4213608787615672 0.08215505604972331 0  0.453125 0.08261718750000001 0  0.5463608787615671 0.08215505604972331 0  0.578125 0.08261718750000001 0  0.6405370048634059 0.0181271643224308 0  0.1405370048634059 0.0181271643224308 0  0.796875 0.1 0  0.296875 0.1 0  0.6389903131525874 0.08261718750000001 0  0.1389903131525873 0.08261718750000001 0  0.796875 0 0  0.296875 0 0  0.359375 0 0  0.421875 0 0  0.484375 0 0  0.546875 0 0  0.609375 0 0  0.859375 0 0  0.984375 0 0  0.015625 0 0  0.9808265015870887 0.08306437698386088 0  0.015625 0.1 0  0.140615310157384 0.03789815460447876 0  0.8258710430305984 0.04237660226422156 0  0.3258710430305984 0.04237660226422154 0  0.4508710430305984 0.04237660226422154 0  0.5758710430305984 0.04237660226422156 0  0.73925254007477 0.05238802290978471 0  0.23925254007477 0.05238802290978471 0  0.19824745992523 0.05238802290978471 0  0.3883710430305984 0.04237660226422155 0  0.5133710430305984 0.04237660226422155 0  0.69824745992523 0.05238802290978471 0  0.6406153101573839 0.03789815460447876 0  0.8875652355519991 0.04398459561477483 0  0.03011990291140283 0.01954869700666445 0  0.2976228417042103 0.07944206017604956 0  0.7976228417042103 0.07944206017604956 0  0.6048261925064409 0.0202852140350185 0  0.8548261925064409 0.0202852140350185 0  0.4173261925064409 0.02028521403501849 0  0.5423261925064409 0.02028521403501849 0  0.479826192506441 0.02028521403501848 0  0.354826192506441 0.02028521403501848 0  0.7612196085333947 0.08469269433495656 0  0.2612196085333947 0.08469269433495656 0  0.671875 0.1 0  0.171875 0.1 0  0.1138156987561534 0.01531102667280419 0  0.1439032206506398 0.06434174268079966 0  0.6439032206506399 0.06434174268079966 0  0.7102169938849521 0.03403655887996306 0  0.2102169938849521 0.03403655887996306 0  0.331272668838501 0.06407394409179688 0  0.8312726688385009 0.06407394409179688 0  0.456272668838501 0.06407394409179688 0  0.5812726688385009 0.06407394409179688 0  0.9626931005513372 0.08290734481438196 0  0.7935362330470901 0.01983307912641665 0  0.2935362330470901 0.01983307912641665 0  0.078125 0 0  0.4143262322415116 0.06583278773374907 0  0.5393262322415115 0.06583278773374907 0  0.6756954193768612 0.08284197013692297 0  0.1756954193768612 0.08284197013692297 0  0.1934564775596677 0.08246105735569852 0  0.6934564775596677 0.0824610573556985 0  0.7948904737904949 0.06168801049385652 0  0.2948904737904949 0.06168801049385652 0  0.42558837890625 0.05 0  0.55058837890625 0.05 0  0.185643310546875 0.0173828125 0  0.685643310546875 0.0173828125 0  0.6085613945093048 0.05928612183988766 0  0.4835613945093048 0.05928612183988766 0  0.3585613945093048 0.05928612183988766 0  0.8585613945093048 0.05928612183988766 0  0.2430157823768409 0.0173828125 0  0.743015782376841 0.0173828125 0  0.11308837890625 0.05 0  0.1710613945093048 0.04071387816011236 0  0.6710613945093048 0.04071387816011236 0  0.2664386054906952 0.04071387816011236 0  0.7664386054906952 0.04071387816011236 0  0.1200872144236349 0.08261718750000001 0  0.618015782376841 0.08261718750000001 0  0.4930157823768409 0.08261718750000001 0  0.3680157823768409 0.08261718750000001 0  0.868015782376841 0.08261718750000001 0  0.515625 0.1 0  0.390625 0.1 0  0.265625 0 0  0.765625 0 0  0.516365031953596 0.05946768293606444 0  0.3913650319535959 0.05946768293606444 0  0.8926135952226929 0.06033018746614476 0  0.171875 0 0  0.671875 0 0  0.890625 0 0  0.8808652108632187 0.0171078614816925 0  0.2274441083295474 0.06456313374723947 0  0.7274441083295474 0.06456313374723946 0  0.9350285939903868 0.06406852472525566 0  0.453125 0 0  0.4433265752246126 0.01710378970181546 0  0.328125 0 0  0.3183265752246126 0.01710378970181546 0  0.578125 0 0  0.5683265752246126 0.01710378970181545 0  0.828125 0 0  0.8183265752246126 0.01710378970181545 0  0.515625 0 0  0.5058265752246126 0.01710378970181545 0  0.390625 0 0  0.3808265752246126 0.01710378970181545 0  0.01564771141956889 0.08260299286276945 0  0.9843522885804311 0.01739700713723054 0  0.3551736619148977 0.03733645281383641 0  0.4801736619148977 0.03733645281383641 0  0.8551736619148977 0.03733645281383642 0  0.7687346279121444 0.06091681090943113 0  0.2687346279121444 0.06091681090943113 0  0.6687653720878556 0.06091681090943113 0  0.1687653720878556 0.06091681090943113 0  0.6051736619148977 0.03733645281383642 0  0.2924478939734164 0.03697522410746614 0  0.7924478939734163 0.03697522410746614 0  0.8719142286486647 0.04906985056606887 0  0.6274213820068905 0.04848945596065109 0  0.4983341418505795 0.04892020701904073 0  0.3733341418505795 0.04892020701904073 0  0.3108341418505795 0.04892020701904073 0  0.8108341418505794 0.04892020701904073 0  0.6242024164762008 0.01640567476785111 0  0.3848561971730207 0.08410836408489761 0  0.5098561971730207 0.08410836408489761 0  0.2598561971730207 0.01589163591510238 0  0.7598561971730207 0.01589163591510238 0  0.890625 0.1 0  0.9582054159658413 0.03874795528975266 0  0.03565822065430611 0.08308352918541601 0  0.9643417793456939 0.016916470814584 0  0 0.0625 0  0.0168287001921521 0.05388159890776699 0  0.0417945840341587 0.06125204471024735 0  0.9831712998078479 0.04611840109223304 0  0.5622607296296599 0.08116332765030569 0  0.4372607296296599 0.08116332765030566 0  0.046875 0.1 0  0.953125 0 0  0.415919189453125 0.03668247284720479 0  0.540919189453125 0.03668247284720479 0  0.0859375 0.01393925506164327 0  0.109375 0.1 0  0.1338555271916189 0.05216484236021472 0  0.953125 0.1 0  0.140625 0 0  0.640625 0 0  0.546875 0.1 0  0.421875 0.1 0  0.203125 0 0  0.703125 0 0  0.046875 0 0  0.234375 0.1 0  0.734375 0.1 0  0.078125 0.1 0  0.921875 0 0  0.921875 0.1 0  0.828125 0.1 0  0.328125 0.1 0  0.453125 0.1 0  0.578125 0.1 0  0.640625 0.1 0  0.140625 0.1 0  0.984375 0.1 0  0.765625 0.1 0  0.265625 0.1 0  0.109375 0 0  0.203125 0.1 0  0.703125 0.1 0  0.234375 0 0  0.734375 0 0  0.609375 0.1 0  0.484375 0.1 0  0.359375 0.1 0  0.859375 0.1 0  0.03162846341645094 0.04971906156616034 0  0.9677597279973049 0.05078312969016881 0  0.8125319459969864 0.08431483734279674 0  0.3125319459969864 0.08431483734279674 0  0.01533347852251798 0.02378565849770013
[...]
<PointData  Vectors="damage"> 
<DataArray  type="Float64"  Name="damage"  NumberOfComponents="3" format="ascii">0.0000000000000000e+00 0.0000000000000000e+00 0.0000000000000000e+00  0.0000000000000000e+00 0.0000000000000000e+00 0.0000000000000000e+00  3.9662707619938609e-01 0.0000000000000000e+00 0.0000000000000000e+00  3.9662707619938609e-01 0.0000000000000000e+00 0.0000000000000000e+00  4.0592164257021503e-04 3.0992984854960067e-04 0.0000000000000000e+00  1.7363659469421102e-04 -1.5229220489415595e-04 0.0000000000000000e+00  2.2287628707678107e-05 -1.8352479941076495e-05 0.0000000000000000e+00  3.3911683261820543e-05 -2.1744159416009006e-05 0.0000000000000000e+00  3.9662087815903596e-01 5.8932946330668603e-05 0.0000000000000000e+00  3.9657707393059599e-01 6.2336021024108162e-05 0.0000000000000000e+00  4.7533874217170775e-05 -3.6651664866037983e-05 0.0000000000000000e+00  3.7069264751500556e-05 -3.3502018264909535e-05 0.0000000000000000e+00  9.9032306463876174e-06 -4.7861230344592529e-06 0.0000000000000000e+00  1.8027734102165058e-05 -8.2029460614977936e-06 0.0000000000000000e+00  3.9655527499449550e-01 1.2757185095624724e-04 0.0000000000000000e+00  3.9661415218116397e-01 1.2445439588691201e-04 0.0000000000000000e+00  3.9662523188927101e-01 1.5194325151543066e-05 0.0000000000000000e+00  3.9660099256957648e-01 1.8577808115168385e-05 0.0000000000000000e+00  3.9661789375809464e-01 8.9309876586757847e-05 0.0000000000000000e+00  3.9656594946141865e-01 9.2657620734775610e-05 0.0000000000000000e+00  3.9654168648793797e-01 1.6885748275528007e-04 0.0000000000000000e+00  3.9660710703156926e-01 1.6194064433263085e-04 0.0000000000000000e+00  9.3208838894746064e-06 -3.7776224548825846e-06 0.0000000000000000e+00  4.6555523896964194e-06 -3.9268388554195233e-07 0.0000000000000000e+00  2.6259212337159219e-05 -1.4429283175514320e-05 0.0000000000000000e+00  1.5806901255945563e-05 -1.1030688351411664e-05 0.0000000000000000e+00  2.9344811376358854e-05 -2.6051476645979144e-05 0.0000000000000000e+00  4.0975687684372744e-05 -2.9425539274436579e-05 0.0000000000000000e+00  5.5548309005410951e-05 -4.3854374885958035e-05 0.0000000000000000e+00  4.7994926533139858e-05 -3.8565841144023609e-05 0.0000000000000000e+00  3.9658876077454158e-01 3.7389428870801683e-05 0.0000000000000000e+00  3.9662334797795601e-01 3.3999046696956405e-05 0.0000000000000000e+00  3.9662642552421706e-01 3.2427152136241925e-06 0.0000000000000000e+00  3.9661374011126249e-01 6.6429280273650268e-06 0.0000000000000000e+00  3.9660957347349624e-01 2.4846621048370119e-05 0.0000000000000000e+00  3.9660250554134119e-01 4.6854449382613873e-05 0.0000000000000000e+00  3.8686293417336491e-05 -3.1564288855147780e-05 0.0000000000000000e+00  3.1635690789247789e-05 -2.3891920271429714e-05 0.0000000000000000e+00  1.7504372786513583e-05 -9.2894000444197134e-06 0.0000000000000000e+00  2.4565665787505036e-05 -1.6226205250472346e-05 0.0000000000000000e+00  0.0000000000000000e+00 0.0000000000000000e+00 0.0000000000000000e+00  1.0413638091064260e-05 -3.8074758566808608e-06 0.0000000000000000e+00  4.5353814708897633e-05 -3.8519055850479028e-05 0.0000000000000000e+00  5.5713020574643043e-05 -4.4844249255651790e-05 0.0000000000000000e+00  3.9656777521946890e-01 1.8555525568194345e-04 0.0000000000000000e+00  3.9658177904912006e-01 1.4475132363265373e-04 0.0000000000000000e+00  3.9658839877175950e-01 1.0753448956359907e-04 0.0000000000000000e+00  3.9659545222840314e-01 7.4690291183923373e-05 0.0000000000000000e+00  3.9661665369791277e-01 9.3265189337109168e-06 0.0000000000000000e+00  3.9662707619938603e-01 0.0000000000000000e+00 0.0000000000000000e+00  4.8617606399545594e-06 -9.2127648109901095e-07 0.0000000000000000e+00  3.9662253470566300e-01 2.1922188601913813e-06 0.0000000000000000e+00  3.9662014808860774e-01 3.1966192708969285e-06 0.0000000000000000e+00  4.8895003086882382e-06 -2.2124320898677501e-06 0.0000000000000000e+00  2.4097775193772088e-06 6.6719071732835946e-07 0.0000000000000000e+00  3.9662669592514599e-01 3.4502163316794461e-07 0.0000000000000000e+00  3.9662707619938609e-01 0.0000000000000000e+00 0.0000000000000000e+00  3.9661677442524351e-01 1.5760079769121045e-05 0.0000000000000000e+00  3.9660843634989518e-01 1.7781830155346874e-05 0.0000000000000000e+00  3.9659478489609157e-01 2.7223501317238380e-05 0.0000000000000000e+00  3.9662589619418925e-01 8.2770631574948155e-06 0.0000000000000000e+00  3.9659387455854783e-01 1.2525543680213689e-04 0.0000000000000000e+00  3.9657431983996183e-01 1.2823076642213817e-04 0.0000000000000000e+00  3.9654955204207393e-01 1.4685840400343911e-04 0.0000000000000000e+00  3.9658403049434687e-01 9.1081897362193970e-05 0.0000000000000000e+00  3.9660058229919404e-01 9.1822087964071305e-05 0.0000000000000000e+00  3.9661614021639280e-01 1.0631416933600821e-04 0.0000000000000000e+00  3.9657144615463330e-01 7.6845282236723291e-05 0.0000000000000000e+00  3.9658750290183264e-01 1.6379416722002855e-04 0.0000000000000000e+00  3.9656551477593216e-01 1.6859993868860421e-04 0.0000000000000000e+00  3.9652294621633932e-01 2.0211784425648712e-04 0.0000000000000000e+00  3.9656062424482363e-01 1.0960381446501422e-04 0.0000000000000000e+00  3.9661161283386376e-01 1.4337781678159281e-04 0.0000000000000000e+00  1.2221035756157235e-04 -5.6940449850469511e-05 0.0000000000000000e+00  1.9497886401884562e-04 -3.2479882799218504e-05 0.0000000000000000e+00  6.5416455601559502e-05 -3.0604249953246232e-05 0.0000000000000000e+00  3.9659162790033486e-01 1.7357180670220999e-04 0.0000000000000000e+00  5.0230014407070174e-05 -4.2243522000084693e-05 0.0000000000000000e+00  4.7308499791925980e-05 -4.0397921179301580e-05 0.0000000000000000e+00  4.1499262596884941e-05 -3.6785872017112118e-05 0.0000000000000000e+00  6.6152256808506927e-05 -5.1733651713750594e-05 0.0000000000000000e+00  4.3727168773202719e-05 -3.5605541829054716e-05 0.0000000000000000e+00  3.9989764907772680e-05 -3.4263657201693315e-05 0.0000000000000000e+00  3.3091270024357758e-05 -2.9836665116556009e-05 0.0000000000000000e+00  5.0939228254806320e-05 -3.9947115168299745e-05 0.0000000000000000e+00  7.1941857524641153e-06 -2.3041060918385358e-06 0.0000000000000000e+00  1.3708458541613620e-05 -5.7372369207500553e-06 0.0000000000000000e+00  1.5166639142226259e-05 -6.8625709728746796e-06 0.0000000000000000e+00  1.2235499533763855e-05 -5.4509076406949443e-06 0.0000000000000000e+00  1.9482304668950646e-05 -1.2115357446401251e-05 0.0000000000000000e+00  2.2397670301222631e-05 -1.2844526566382998e-05 0.0000000000000000e+00  2.2217268700843948e-05 -1.1123485136719568e-05 0.0000000000000000e+00  1.8973818810265602e-05 -1.4598281560028574e-05 0.0000000000000000e+00  1.2776221398965212e-05 -7.7363608915886742e-06 0.0000000000000000e+00  3.7516234254908058e-05 -2.5587081190107396e-05 0.0000000000000000e+00  3.6902294159407776e-05 -2.8280632009005511e-05 0.0000000000000000e+00  3.2795243197141320e-05 -2.6757884678059876e-05 0.0000000000000000e+00  2.5744649392936241e-05 -2.2197576937121908e-05 0.0000000000000000e+00  2.6368312276868446e-05 -1.9499077773348618e-05 0.0000000000000000e+00  3.0472622834746562e-05 -2.1030584772314471e-05 0.0000000000000000e+00  3.0150853500387046e-05 -1.7993759449481884e-05 0.0000000000000000e+00  4.4290380508538690e-05 -3.3153500486315991e-05 0.0000000000000000e+00  3.9662220923960834e-01 4.5724097485056890e-05 0.0000000000000000e+00  3.9661126785010270e-01 3.4657912818092608e-05 0.0000000000000000e+00  3.9659957486344022e-01 3.7013321359281579e-05 0.0000000000000000e+00  3.9658281671987022e-01 4.9125409392707988e-05 0.0000000000000000e+00  3.9659234756013317e-01 6.0666377483185353e-05 0.0000000000000000e+00  3.9660683980868983e-01 5.8055674490514851e-05 0.0000000000000000e+00  3.9661947780228668e-01 7.3460407115710059e-05 0.0000000000000000e+00  3.9660734553242372e-01 1.1726260254345031e-05 0.0000000000000000e+00  3.9662432392565822e-01 2.3746398680173496e-05 0.0000000000000000e+00  3.9662344643013486e-01 1.1737633577396883e-06 0.0000000000000000e+00  3.9662226286500790e-01 5.8260491467285686e-06 0.0000000000000000e+00  0.0000000000000000e+00 0.0000000000000000e+00 0.0000000000000000e+00  3.0647712320381530e-06 -8.2889537904199567e-07 0.0000000000000000e+00  6.9244420832186510e-06 -1.6980068854135016e-06 0.0000000000000000e+00  3.9661455158606151e-01 7.5455255591127105e-06 0.0000000000000000e+00  1.0012465436914999e-05 -3.6800061092621901e-06 0.0000000000000000e+00  3.9661877618806257e-01 3.8923017288841994e-06 0.0000000000000000e+00  6.5888316907997260e-06 -2.2054823971400801e-06 0.0000000000000000e+00  3.9661078535372846e-01 1.2264335992154712e-05 0.0000000000000000e+00  2.0979433384000504e-06 -3.0387129926498856e-08 0.0000000000000000e+00  3.9662532091386232e-01 2.3658309012751690e-07 0.0000000000000000e+00  3.9658451402239714e-01 7.2203705115892798e-05 0.0000000000000000e+00  3.9660081835938366e-01 2.8695609652063952e-05 0.0000000000000000e+00  2.2602513326553249e-05 -1.6246146642539860e-05 0.0000000000000000e+00  3.4873650754375398e-05 -2.9626490130608267e-05 0.0000000000000000e+00  2.0257041835266801e-05 -1.0548059588812669e-05 0.0000000000000000e+00  4.7282982949813042e-05 -3.8416134945823971e-05 0.0000000000000000e+00  5.2308910990952828e-05 -3.9963878485668335e-05 0.0000000000000000e+00  3.9657946597513738e-01 1.8320932302966282e-04 0.0000000000000000e+00  3.9656470926738369e-01 1.5147927568297630e-04 0.0000000000000000e+00  3.9660253215976465e-01 1.0475249361124022e-04 0.0000000000000000e+00  3.4103687818296610e-05 -2.4278436987860174e-05 0.0000000000000000e+00  3.9661201977470378e-01 4.7673136565937076e-05 0.0000000000000000e+00  0.0000000000000000e+00 0.0000000000000000e+00 0.0000000000000000e+00  3.9662707619938609e-01 0.0000000000000000e+00 0.0000000000000000e+00  3.9661740407977408e-01 2.2026493715441701e-05 0.0000000000000000e+00  3.9659163270388986e-01 5.0757138645236976e-05 0.0000000000000000e+00  4.2219201831455794e-05 -3.3190613910267551e-05 0.0000000000000000e+00  2.7937495684483270e-05 -2.2153587773503500e-05 0.0000000000000000e+00  4.2256665810849295e-05 -3.6860727912823655e-05 0.0000000000000000e+00  5.9906078534238336e-05 -5.1488929800530405e-05 0.0000000000000000e+00  3.9653275724824605e-01 2.0527372880737419e-04 0.0000000000000000e+00  3.9659743628578453e-01 1.3966286364434458e-04 0.0000000000000000e+00  3.9657555817231399e-01 1.0446677408650652e-04 0.0000000000000000e+00  1.5937492712590491e-05 -9.2097586925138085e-06 0.0000000000000000e+00  2.6228916459801630e-05 -1.6012351273024976e-05 0.0000000000000000e+00  3.9660664012474234e-01 7.8475747315486698e-05 0.0000000000000000e+00  9.2195084082246158e-06 -3.2672055435482392e-06 0.0000000000000000e+00  1.3309596299478181e-05 -5.4775710597988563e-06 0.0000000000000000e+00  3.9662098295838361e-01 1.0425487123102258e-05 0.0000000000000000e+00  3.9661111620003364e-01 6.6952107099733045e-05 0.0000000000000000e+00  2.9626046541450304e-05 -1.9005710378523934e-05 0.0000000000000000e+00  4.3939352951955166e-06 -3.3612277132527480e-07 0.0000000000000000e+00  3.9661909345935226e-01 5.2800596623213322e-06 0.0000000000000000e+00  3.9662408880091721e-01 2.5271915771555334e-06 0.0000000000000000e+00  7.7886232909066080e-06 -2.3285602663408229e-06 0.0000000000000000e+00  3.9657741227345406e-01 8.3750152489541735e-05 0.0000000000000000e+00  1.9308975297908802e-05 -1.3325386306929854e-05 0.0000000000000000e+00  3.9661822895278370e-01 2.8928653911361147e-05 0.0000000000000000e+00  4.0617205614812775e-05 -3.0750982127924630e-05 0.0000000000000000e+00  5.0514298390720503e-05 -4.0982850856050067e-05 0.0000000000000000e+00  5.5240864106115667e-05 -4.5570247115329182e-05 0.0000000000000000e+00  3.9659437124871516e-01 1.7180986326661776e-04 0.0000000000000000e+00  3.9659965757824567e-01 1.5348933113642290e-04 0.0000000000000000e+00  3.9656838515236786e-01 1.1765318948992547e-04 0.0000000000000000e+00  1.2968849472349981e-05 -6.7234182923353545e-06 0.0000000000000000e+00  3.9662281453275866e-01 3.9684192448584061e-05 0.0000000000000000e+00  3.9264984463930076e-05 -2.7515593670933553e-05 0.0000000000000000e+00  3.9660506994261180e-01 1.1658536970235149e-04 0.0000000000000000e+00  1.8348428596352973e-05 -8.7807265407429620e-06 0.0000000000000000e+00  3.9658576614381991e-01 4.3053361922198173e-05 0.0000000000000000e+00  2.7525284482582949e-05 -2.4128780070245517e-05 0.0000000000000000e+00  3.5038791416865120e-05 -3.1696540921259156e-05 0.0000000000000000e+00  4.4289326900266624e-05 -3.8060030688742215e-05 0.0000000000000000e+00  9.6133833215517614e-05 -7.8763973270661412e-06 0.0000000000000000e+00  3.9653465183924858e-01 1.8286220835158026e-04 0.0000000000000000e+00  3.9655254112998339e-01 1.3700151744595510e-04 0.0000000000000000e+00  3.9659787477427905e-01 2.2672293374663263e-05 0.0000000000000000e+00  3.9662336850289098e-01 1.8301857698982554e-06 0.0000000000000000e+00  1.3118500660222363e-06 7.0700508627620018e-07 0.0000000000000000e+00  3.9662628402173605e-01 -8.0447373004681150e-08 0.0000000000000000e+00  2.5934912344340387e-06 -1.3456049042990881e-06 0.0000000000000000e+00  1.4695920574986896e-05 -7.3497512006537260e-06 0.0000000000000000e+00  3.9660509391095305e-01 3.0799905899349554e-05 0.0000000000000000e+00  3.5824182984559682e-05 -2.9155838004131563e-05 0.0000000000000000e+00  5.0390358778584577e-05 -4.2052993716406683e-05 0.0000000000000000e+00  3.9657493790165171e-01 1.5644168512618891e-04 0.0000000000000000e+00  3.9659882349094966e-01 6.4890695731187515e-05 0.0000000000000000e+00  2.7154504416623953e-05 -1.8776329974040643e-05 0.0000000000000000e+00  2.2499223961362384e-05 -1.3916210113942260e-05 0.0000000000000000e+00  4.2798528895745524e-05 -3.6428096495236962e-05 0.0000000000000000e+00  3.9650119494204683e-01 2.0889387095055889e-04 0.0000000000000000e+00  3.9659432320695287e-01 8.4863803180496494e-05 0.0000000000000000e+00  3.9657975528027267e-01 1.1685958802896923e-04 0.0000000000000000e+00  3.9661323240230545e-01 1.3455982163058525e-05 0.0000000000000000e+00  2.5766389739392692e-06 2.3704473880222138e-07 0.0000000000000000e+00  3.6886200119203319e-05 -2.6921594075045795e-05 0.0000000000000000e+00  3.9661517773891153e-01 3.9713231312798509e-05 0.0000000000000000e+00  3.9656453704473088e-01 1.3884325450464976e-04 0.0000000000000000e+00  3.9660264790764294e-01 2.2839794003285920e-05 0.0000000000000000e+00  4.4455796357231298e-05 -3.8670726777909536e-05 0.0000000000000000e+00  3.9655126259580797e-01 1.8367104128033673e-04 0.0000000000000000e+00  6.4285592416367385e-05 -3.2402200918435873e-05 0.0000000000000000e+00  3.6740522362232236e-05 -3.1896222841664420e-05 0.0000000000000000e+00  3.9661486047410899e-01 5.4306392433950988e-05 0.0000000000000000e+00  3.3379050601638643e-05 -2.2587606401899207e-05 0.0000000000000000e+00  3.9661702770525076e-01 9.7654856796022460e-05 0.0000000000000000e+00  2.4256737158029479e-05 -1.2733216308658351e-05 0.0000000000000000e+00  1.0118632595179417e-05 -4.2666501458468018e-06 0.0000000000000000e+00  1.7347190808574729e-05 -8.5746708751641928e-06 0.0000000000000000e+00  3.9659515508821874e-01 1.1418406660918063e-04 0.0000000000000000e+00  3.9658665353744615e-01 7.9496428055297519e-05 0.0000000000000000e+00  2.1887035424745672e-05 -1.4688777918426098e-05 0.0000000000000000e+00  3.8857245845396413e-05 -3.0524951981221868e-05 0.0000000000000000e+00  3.9661256814853829e-01 2.8337833087557974e-05 0.0000000000000000e+00  5.2971278049112012e-05 -4.4836929464034264e-05 0.0000000000000000e+00  3.9658906670902888e-01 1.5215399015379696e-04 0.0000000000000000e+00  3.9662544160000490e-01 8.1731818933808792e-07 0.0000000000000000e+00  3.9659261801806306e-01 4.3300810943245534e-05 0.0000000000000000e+00  2.9527123476658426e-05 -2.4395819765654392e-05 0.0000000000000000e+00  5.8970006439591483e-06 -1.2695038474691171e-06 0.0000000000000000e+00  4.7768238783064658e-05 -3.9740030631646344e-05 0.0000000000000000e+00  3.9658271250924249e-01 1.7740233116087756e-04 0.0000000000000000e+00  3.9660802253480165e-01 9.5919527942232602e-05 0.0000000000000000e+00  2.2965924483581689e-05 -1.2491839063925097e-05 0.0000000000000000e+00  2.5094867843952728e-05 -1.4432303385109395e-05 0.0000000000000000e+00  3.9660916347444397e-01 8.6513053505636597e-05 0.0000000000000000e+00  3.9660838282383648e-01 4.1195192627315541e-05 0.0000000000000000e+00  3.4520139025549565e-05 -2.5986122463088205e-05 0.0000000000000000e+00  4.7347795593326333e-05 -4.0405032052368636e-05 0.0000000000000000e+00  3.9657556782613779e-01 1.7272057500419873e-04 0.0000000000000000e+00  1.7484340883154048e-05 -1.1355424479706888e-05 0.0000000000000000e+00  3.9657473563075685e-01 9.2791267991256329e-05 0.0000000000000000e+00  3.9658884727728383e-01 1.3533667055207950e-04 0.0000000000000000e+00  6.2895409563492834e-05 -4.9651192637730870e-05 0.0000000000000000e+00  4.1331062057542042e-05 -3.3590062177132240e-05 0.0000000000000000e+00  3.9661373831988561e-01 2.0240384361598219e-05 0.0000000000000000e+00  2.3594058167469974e-05 -1.8068024649392587e-05 0.0000000000000000e+00  3.9658361166799200e-01 6.4587557180390459e-05 0.0000000000000000e+00  1.2610330042071663e-05 -5.3080040986983864e-06 0.0000000000000000e+00  1.8277969501863957e-05 -1.0520454649536254e-05 0.0000000000000000e+00  3.9658507500185042e-01 9.9661197758333750e-05 0.0000000000000000e+00  2.8896017726245472e-05 -2.1732085143865053e-05 0.0000000000000000e+00  3.9659699619675814e-01 5.3298488885177225e-05 0.0000000000000000e+00  1.5937523585704476e-05 -7.0916913462776303e-06 0.0000000000000000e+00  3.9660338051784771e-01 1.2904528203885101e-04 0.0000000000000000e+00  7.9168681957461989e-05 -6.8281729164619816e-05 0.0000000000000000e+00  4.4887581023295041e-05 -3.5348143717214481e-05 0.0000000000000000e+00  3.9662054815650166e-01 1.7199236916458154e-05 0.0000000000000000e+00  3.9652869994471379e-01 1.3926580052516961e-04 0.0000000000000000e+00  4.9190755168709421e-05 -3.8306953402225964e-05 0.0000000000000000e+00  2.4000521238023298e-05 -2.0267887034575953e-05 0.0000000000000000e+00  3.9657991865155973e-01 5.5547638783389874e-05 0.0000000000000000e+00  3.9655028512485585e-01 1.9260158752607560e-04 0.0000000000000000e+00  4.4808171230293435e-05 -3.7205202929270915e-05 0.0000000000000000e+00  3.9661723330296556e-01 1.1817840303860723e-05 0.0000000000000000e+00  1.4281794731021456e-05 -9.3386805341529809e-06 0.0000000000000000e+00  3.9656324844055607e-01 1.0097845972897594e-04 0.0000000000000000e+00  3.9660414778337932e-01 1.4923128854937661e-05 0.0000000000000000e+00  3.9660622787810379e-01 1.6200183997897794e-05 0.0000000000000000e+00  2.7163928775428007e-05 -1.7764060437499316e-05 0.0000000000000000e+00  3.9660321059276299e-01 7.0044821150063265e-05 0.0000000000000000e+00  3.9662175430254526e-01 4.0917513479285634e-06 0.0000000000000000e+00  5.3889734958410346e-05 -3.7251185214365302e-05 0.0000000000000000e+00  4.8716653310869839e-05 -3.9869006588238656e-05 0.0000000000000000e+00  3.1196612160547450e-05 -2.7955043860959795e-05 0.0000000000000000e+00  3.2070757633503816e-05 -2.7366116363252955e-05 0.0000000000000000e+00  3.9654606278393018e-01 1.5749474741434395e-04 0.0000000000000000e+00  3.9655638876954269e-01 1.6303498018401471e-04 0.0000000000000000e+00  3.9659173686963645e-01 3.2145422218674416e-05 0.0000000000000000e+00  3.9659567187748201e-01 3.4446582918376954e-05 0.0000000000000000e+00  3.9649100778930230e-01 2.3700743955538814e-04 0.0000000000000000e+00  3.9635361255866247e-01 1.9588412148752361e-04 0.0000000000000000e+00  3.9189721385960733e-05 -3.5203286425188771e-05 0.0000000000000000e+00  3.9585429997917394e-05 -3.4808642593264592e-05 0.0000000000000000e+00  2.0100748073634295e-06 -7.3616393503272774e-07 0.0000000000000000e+00  3.9662449362476260e-01 8.6232132142217439e-07 0.0000000000000000e+00  3.8607327561541793e-05 -3.2509952236178509e-05 0.0000000000000000e+00  6.4161196759640791e-05 -4.1639512894590777e-05 0.0000000000000000e+00  3.9660738712586385e-01 2.1986397882073906e-05 0.0000000000000000e+00  3.96605560350