<?xml version="1.0"?>
<VTKFile type="UnstructuredGrid"  version="0.1"  >
<UnstructuredGrid>
<Piece  NumberOfPoints="820" NumberOfCells="1464">
<Points>
<DataArray  type="Float64"  NumberOfComponents="3"  format="ascii">0 0.1 0  0 0 0  1 0 0  1 0.1 0  0.5 0 0  0.5 0.1 0  0.25 0 0  0.25 0.1 0  0.75 0.1 0  0.75 0 0  0.375 0.1 0  0.375 0 0  0.125 0 0  0.125 0.1 0  0.625 0 0  0.625 0.1 0  0.875 0.1 0  0.875 0 0  0.6875 0.1 0  0.6875 0 0  0.5625 0 0  0.5625 0.1 0  0.0625 0.1 0  0.0625 0 0  0.1875 0.1 0  0.1875 0 0  0.3125 0 0  0.3125 0.1 0  0.4375 0.1 0  0.4375 0 0  0.8125 0 0  0.8125 0.1 0  0.9375 0.1 0  0.9375 0 0  0.84375 0.05000000000000001 0  0.78125 0.05 0  0.34375 0.05000000000000001 0  0.28125 0.05 0  0.15625 0.05 0  0.21875 0.05000000000000001 0  0 0.05 0  0.09375 0.05000000000000001 0  0.40625 0.05 0  0.46875 0.05000000000000001 0  0.53125 0.05 0  0.59375 0.05000000000000001 0  0.65625 0.05 0  0.71875 0.05000000000000001 0  0.90625 0.05 0  1 0.05 0  0.046875 0.04453125000000001 0  0.953125 0.05546875 0  0.96875 0 0  0.03125 0.1 0  0.03125 0 0  0.96875 0.1 0  1 0.07500000000000001 0  0.875 0.06523437500000001 0  0.8715625 0.03261718750000001 0  0.84375 0 0  0.90625 0.1 0  0.625 0.06523437500000001 0  0.6215625 0.03261718750000001 0  0.59375 0 0  0.6875 0.034765625 0  0.6840625 0.0673828125 0  0.65625 0.1 0  0.71875 0 0  0.5625 0.06523437500000001 0  0.5590625 0.03261718750000001 0  0.53125 0 0  0.65625 0 0  0.59375 0.1 0  0.5 0.06523437500000001 0  0.4965625 0.03261718750000001 0  0.46875 0 0  0.53125 0.1 0  0.4375 0.06523437500000001 0  0.4340625 0.03261718750000001 0  0.40625 0 0  0.46875 0.1 0  0.375 0.06523437500000001 0  0.3715625 0.03261718750000001 0  0.34375 0 0  0.40625 0.1 0  0.09375 0 0  0.09375 0.1 0  0.125 0.06523437500000001 0  0.1215625 0.03261718750000001 0  0.1875 0.034765625 0  0.1840625 0.0673828125 0  0.15625 0.1 0  0.21875 0 0  0.15625 0 0  0.28125 0.1 0  0.3125 0.06523437500000001 0  0.3090625 0.03261718750000001 0  0.28125 0 0  0.25 0.034765625 0  0.2534375 0.0673828125 0  0.21875 0.1 0  0.34375 0.1 0  0.78125 0.1 0  0.8125 0.06523437500000001 0  0.8090625 0.03261718750000001 0  0.78125 0 0  0.75 0.034765625 0  0.7534375 0.0673828125 0  0.71875 0.1 0  0.90625 0 0  0.84375 0.1 0  0.9740776699029127 0.03143583131067961 0  0.921875 0.075 0  0 0.025 0  0.02592233009708738 0.06856416868932039 0  0.0725 0.028515625 0  0.921875 0.025 0  0.078125 0.07500000000000001 0  0.9484670937186905 0.0242372460741816 0  0.05153290628130947 0.07576275392581842 0  0.8963594872172794 0.02643561701079966 0  0.02229817708333334 0.0375 0  0.9777018229166666 0.06250000000000001 0  0.72590087890625 0.025 0  0.8345789124085022 0.025 0  0.22590087890625 0.025 0  0.3345789124085023 0.025 0  0.15996337890625 0.075 0  0.39909912109375 0.075 0  0.4595789124085023 0.025 0  0.52409912109375 0.075 0  0.5845789124085022 0.025 0  0.65996337890625 0.075 0  0.27753662109375 0.075 0  0.77753662109375 0.075 0  0 0.07500000000000001 0  1 0.025 0  0.85090087890625 0.07500000000000001 0  0.77409912109375 0.025 0  0.35090087890625 0.07500000000000001 0  0.27409912109375 0.025 0  0.3970789124085022 0.025 0  0.47590087890625 0.07500000000000001 0  0.5220789124085022 0.025 0  0.60090087890625 0.07500000000000001 0  0.66340087890625 0.025 0  0.16340087890625 0.025 0  0.2095789124085023 0.07500000000000001 0  0.7095789124085022 0.07500000000000001 0  0.0974991439537346 0.02496950333675565 0  0.1029665898617512 0.07685681883640554 0  0.8970334101382489 0.07685681883640554 0  0.7331321502083639 0.0805418246751822 0  0.2331321502083639 0.08054182467518221 0  0.04967773437499999 0.02050781250000001 0  0.9302821601941748 0.04763728762135922 0  0.9453125 0.07773437499999999 0  0.06981448887637284 0.05242311804773303 0  0.703125 0.0173828125 0  0.203125 0.0173828125 0  0.828125 0.08261718750000001 0  0.328125 0.08261718750000001 0  0.4213608787615672 0.08215505604972331 0  0.453125 0.08261718750000001 0  0.5463608787615671 0.08215505604972331 0  0.578125 0.08261718750000001 0  0.6405370048634059 0.0181271643224308 0  0.1405370048634059 0.0181271643224308 0  0.796875 0.1 0  0.296875 0.1 0  0.6389903131525874 0.08261718750000001 0  0.1389903131525873 0.08261718750000001 0  0.796875 0 0  0.296875 0 0  0.359375 0 0  0.421875 0 0  0.484375 0 0  0.546875 0 0  0.609375 0 0  0.859375 0 0  0.984375 0 0  0.015625 0 0  0.9808265015870887 0.08306437698386088 0  0.015625 0.1 0  0.140615310157384 0.03789815460447876 0  0.8258710430305984 0.04237660226422156 0  0.3258710430305984 0.04237660226422154 0  0.4508710430305984 0.04237660226422154 0  0.5758710430305984 0.04237660226422156 0  0.73925254007477 0.05238802290978471 0  0.23925254007477 0.05238802290978471 0  0.19824745992523 0.05238802290978471 0  0.3883710430305984 0.04237660226422155 0  0.5133710430305984 0.04237660226422155 0  0.69824745992523 0.05238802290978471 0  0.6406153101573839 0.03789815460447876 0  0.8875652355519991 0.04398459561477483 0  0.03011990291140283 0.01954869700666445 0  0.2976228417042103 0.07944206017604956 0  0.7976228417042103 0.07944206017604956 0  0.6048261925064409 0.0202852140350185 0  0.8548261925064409 0.0202852140350185 0  0.4173261925064409 0.02028521403501849 0  0.5423261925064409 0.02028521403501849 0  0.479826192506441 0.02028521403501848 0  0.354826192506441 0.02028521403501848 0  0.7612196085333947 0.08469269433495656 0  0.2612196085333947 0.08469269433495656 0  0.671875 0.1 0  0.171875 0.1 0  0.1138156987561534 0.01531102667280419 0  0.1439032206506398 0.06434174268079966 0  0.6439032206506399 0.06434174268079966 0  0.7102169938849521 0.03403655887996306 0  0.2102169938849521 0.03403655887996306 0  0.331272668838501 0.06407394409179688 0  0.8312726688385009 0.06407394409179688 0  0.456272668838501 0.06407394409179688 0  0.5812726688385009 0.06407394409179688 0  0.9626931005513372 0.08290734481438196 0  0.7935362330470901 0.01983307912641665 0  0.2935362330470901 0.01983307912641665 0  0.078125 0 0  0.4143262322415116 0.06583278773374907 0  0.5393262322415115 0.06583278773374907 0  0.6756954193768612 0.08284197013692297 0  0.1756954193768612 0.08284197013692297 0  0.1934564775596677 0.08246105735569852 0  0.6934564775596677 0.0824610573556985 0  0.7948904737904949 0.06168801049385652 0  0.2948904737904949 0.06168801049385652 0  0.42558837890625 0.05 0  0.55058837890625 0.05 0  0.185643310546875 0.0173828125 0  0.685643310546875 0.0173828125 0  0.6085613945093048 0.05928612183988766 0  0.4835613945093048 0.05928612183988766 0  0.3585613945093048 0.05928612183988766 0  0.8585613945093048 0.05928612183988766 0  0.2430157823768409 0.0173828125 0  0.743015782376841 0.0173828125 0  0.11308837890625 0.05 0  0.1710613945093048 0.04071387816011236 0  0.6710613945093048 0.04071387816011236 0  0.2664386054906952 0.04071387816011236 0  0.7664386054906952 0.04071387816011236 0  0.1200872144236349 0.08261718750000001 0  0.618015782376841 0.08261718750000001 0  0.4930157823768409 0.08261718750000001 0  0.3680157823768409 0.08261718750000001 0  0.868015782376841 0.08261718750000001 0  0.515625 0.1 0  0.390625 0.1 0  0.265625 0 0  0.765625 0 0  0.516365031953596 0.05946768293606444 0  0.3913650319535959 0.05946768293606444 0  0.8926135952226929 0.06033018746614476 0  0.171875 0 0  0.671875 0 0  0.890625 0 0  0.8808652108632187 0.0171078614816925 0  0.2274441083295474 0.06456313374723947 0  0.7274441083295474 0.06456313374723946 0  0.9350285939903868 0.06406852472525566 0  0.453125 0 0  0.4433265752246126 0.01710378970181546 0  0.328125 0 0  0.3183265752246126 0.01710378970181546 0  0.578125 0 0  0.5683265752246126 0.01710378970181545 0  0.828125 0 0  0.8183265752246126 0.01710378970181545 0  0.515625 0 0  0.5058265752246126 0.01710378970181545 0  0.390625 0 0  0.3808265752246126 0.01710378970181545 0  0.01564771141956889 0.08260299286276945 0  0.9843522885804311 0.01739700713723054 0  0.3551736619148977 0.03733645281383641 0  0.4801736619148977 0.03733645281383641 0  0.8551736619148977 0.03733645281383642 0  0.7687346279121444 0.06091681090943113 0  0.2687346279121444 0.06091681090943113 0  0.6687653720878556 0.06091681090943113 0  0.1687653720878556 0.06091681090943113 0  0.6051736619148977 0.03733645281383642 0  0.2924478939734164 0.03697522410746614 0  0.7924478939734163 0.03697522410746614 0  0.8719142286486647 0.04906985056606887 0  0.6274213820068905 0.04848945596065109 0  0.4983341418505795 0.04892020701904073 0  0.3733341418505795 0.04892020701904073 0  0.3108341418505795 0.04892020701904073 0  0.8108341418505794 0.04892020701904073 0  0.6242024164762008 0.01640567476785111 0  0.3848561971730207 0.08410836408489761 0  0.5098561971730207 0.08410836408489761 0  0.2598561971730207 0.01589163591510238 0  0.7598561971730207 0.01589163591510238 0  0.890625 0.1 0  0.9582054159658413 0.03874795528975266 0  0.03565822065430611 0.08308352918541601 0  0.9643417793456939 0.016916470814584 0  0 0.0625 0  0.0168287001921521 0.05388159890776699 0  0.0417945840341587 0.06125204471024735 0  0.9831712998078479 0.04611840109223304 0  0.5622607296296599 0.08116332765030569 0  0.4372607296296599 0.08116332765030566 0  0.046875 0.1 0  0.953125 0 0  0.415919189453125 0.03668247284720479 0  0.540919189453125 0.03668247284720479 0  0.0859375 0.01393925506164327 0  0.109375 0.1 0  0.1338555271916189 0.05216484236021472 0  0.953125 0.1 0  0.140625 0 0  0.640625 0 0  0.546875 0.1 0  0.421875 0.1 0  0.203125 0 0  0.703125 0 0  0.046875 0 0  0.234375 0.1 0  0.734375 0.1 0  0.078125 0.1 0  0.921875 0 0  0.921875 0.1 0  0.828125 0.1 0  0.328125 0.1 0  0.453125 0.1 0  0.578125 0.1 0  0.640625 0.1 0  0.140625 0.1 0  0.984375 0.1 0  0.765625 0.1 0  0.265625 0.1 0  0.109375 0 0  0.203125 0.1 0  0.703125 0.1 0  0.234375 0 0  0.734375 0 0  0.609375 0.1 0  0.484375 0.1 0  0.359375 0.1 0  0.859375 0.1 0  0.03162846341645094 0.04971906156616034 0  0.9677597279973049 0.05078312969016881 0  0.8125319459969864 0.08431483734279674 0  0.3125319459969864 0.08431483734279674 0  0.01533347852251798 0.02378565849770013
[...]
<PointData  Vectors="damage"> 
<DataArray  type="Float64"  Name="damage"  NumberOfComponents="3" format="ascii">0.0000000000000000e+00 0.0000000000000000e+00 0.0000000000000000e+00  0.0000000000000000e+00 0.0000000000000000e+00 0.0000000000000000e+00  3.3996606531375950e-01 0.0000000000000000e+00 0.0000000000000000e+00  3.3996606531375950e-01 0.0000000000000000e+00 0.0000000000000000e+00  4.7633336044378128e-04 4.0655517924585987e-04 0.0000000000000000e+00  2.2578237503371158e-04 -1.7148771397634696e-04 0.0000000000000000e+00  3.1435230430524427e-05 -1.5597328143093860e-05 0.0000000000000000e+00  4.0419859399668834e-05 -1.9935493971132053e-05 0.0000000000000000e+00  3.3995861697836338e-01 7.6063467782623787e-05 0.0000000000000000e+00  3.3990165880056350e-01 8.0415056691015714e-05 0.0000000000000000e+00  5.6673337315343407e-05 -3.0091939051233349e-05 0.0000000000000000e+00  5.1495461461888613e-05 -2.6071504156310525e-05 0.0000000000000000e+00  1.4230693758610466e-05 -3.9934931427155928e-06 0.0000000000000000e+00  2.1484252907496990e-05 -8.3583264068077581e-06 0.0000000000000000e+00  3.3987323693654609e-01 1.6558827256061613e-04 0.0000000000000000e+00  3.3995056827576753e-01 1.6161244626643277e-04 0.0000000000000000e+00  3.3996384188829487e-01 1.9485049819986150e-05 0.0000000000000000e+00  3.3993258165662543e-01 2.3810272669610449e-05 0.0000000000000000e+00  3.3995505216507232e-01 1.1561702451680372e-04 0.0000000000000000e+00  3.3988718612959745e-01 1.1989607322856033e-04 0.0000000000000000e+00  3.3985543871761759e-01 2.1988724197063395e-04 0.0000000000000000e+00  3.3994190299466398e-01 2.1107316966201866e-04 0.0000000000000000e+00  1.1109925213196538e-05 -4.2207191869289758e-06 0.0000000000000000e+00  6.7635155211096726e-06 1.0768285335872574e-07 0.0000000000000000e+00  3.1296224756037667e-05 -1.3872480401462927e-05 0.0000000000000000e+00  2.2487246440099450e-05 -9.5336887429793445e-06 0.0000000000000000e+00  4.1064456840059656e-05 -2.1355362116098871e-05 0.0000000000000000e+00  4.8847241863948183e-05 -2.5668991610240987e-05 0.0000000000000000e+00  6.6397668037119337e-05 -3.3769294317581145e-05 0.0000000000000000e+00  6.6054510996557867e-05 -2.7040734951117995e-05 0.0000000000000000e+00  3.3991679775042416e-01 4.8083568790945604e-05 0.0000000000000000e+00  3.3996157850043107e-01 4.3748736153385925e-05 0.0000000000000000e+00  3.3996527275367028e-01 4.1329699616480935e-06 0.0000000000000000e+00  3.3994897530948365e-01 8.4804313625966502e-06 0.0000000000000000e+00  3.3994368724726226e-01 3.1895680338502703e-05 0.0000000000000000e+00  3.3993465041250703e-01 6.0346998196004526e-05 0.0000000000000000e+00  4.9463000051667293e-05 -2.6151831625084590e-05 0.0000000000000000e+00  4.0448273208362871e-05 -2.0809512719026073e-05 0.0000000000000000e+00  2.2378675287596005e-05 -8.7245204855055979e-06 0.0000000000000000e+00  3.1411208010219395e-05 -1.4709713946670312e-05 0.0000000000000000e+00  0.0000000000000000e+00 0.0000000000000000e+00 0.0000000000000000e+00  1.3314316522432061e-05 -3.7102019431539868e-06 0.0000000000000000e+00  5.7977762696328915e-05 -2.9883313396206171e-05 0.0000000000000000e+00  7.1064926555572944e-05 -3.2268743374582333e-05 0.0000000000000000e+00  3.3989065360136211e-01 2.4175383365151104e-04 0.0000000000000000e+00  3.3990816388462269e-01 1.8818933275217248e-04 0.0000000000000000e+00  3.3991661390149730e-01 1.3936232817273462e-04 0.0000000000000000e+00  3.3992563317589630e-01 9.6498610904746993e-05 0.0000000000000000e+00  3.3995273943601445e-01 1.1920903645628349e-05 0.0000000000000000e+00  3.3996606531375950e-01 0.0000000000000000e+00 0.0000000000000000e+00  6.2812258152049661e-06 -8.9221149391802996e-07 0.0000000000000000e+00  3.3996026250724276e-01 2.7814325074867882e-06 0.0000000000000000e+00  3.3995719568619981e-01 4.0752256756197143e-06 0.0000000000000000e+00  5.8390622176055771e-06 -2.6214072393413760e-06 0.0000000000000000e+00  3.4917822757921494e-06 1.0670466650756454e-06 0.0000000000000000e+00  3.3996559092044060e-01 4.2980898327394546e-07 0.0000000000000000e+00  3.3996606531375956e-01 0.0000000000000000e+00 0.0000000000000000e+00  3.3995293864899345e-01 2.0194666191763091e-05 0.0000000000000000e+00  3.3994218034468043e-01 2.2787848312784541e-05 0.0000000000000000e+00  3.3992457802307141e-01 3.4953693066547108e-05 0.0000000000000000e+00  3.3996463678886546e-01 1.0589978152035426e-05 0.0000000000000000e+00  3.3992393296085666e-01 1.6259972770078980e-04 0.0000000000000000e+00  3.3989824848107902e-01 1.6646777310690898e-04 0.0000000000000000e+00  3.3986573792207891e-01 1.9092471869880945e-04 0.0000000000000000e+00  3.3991080410350955e-01 1.1785198014474372e-04 0.0000000000000000e+00  3.3993245363654873e-01 1.1884773333645062e-04 0.0000000000000000e+00  3.3995295330175784e-01 1.3783909072240377e-04 0.0000000000000000e+00  3.3989434555195780e-01 9.9282429077987024e-05 0.0000000000000000e+00  3.3991597997089096e-01 2.1333249031888193e-04 0.0000000000000000e+00  3.3988682702354273e-01 2.1952483821066932e-04 0.0000000000000000e+00  3.3983150266768775e-01 2.6348759793799710e-04 0.0000000000000000e+00  3.3988023602515210e-01 1.4204409341161064e-04 0.0000000000000000e+00  3.3994748702819932e-01 1.8649553040613699e-04 0.0000000000000000e+00  1.4648017840549675e-04 -4.4240718424558528e-05 0.0000000000000000e+00  2.5682784843207373e-04 -1.9353576104575736e-05 0.0000000000000000e+00  8.8939537267215130e-05 -1.3419132434233323e-05 0.0000000000000000e+00  3.3992185338216990e-01 2.2699894179359814e-04 0.0000000000000000e+00  6.2786712855059831e-05 -3.1802111600743903e-05 0.0000000000000000e+00  6.2066655521961472e-05 -2.9783716966054298e-05 0.0000000000000000e+00  5.7420825200567616e-05 -2.7614635214936864e-05 0.0000000000000000e+00  7.9745524758047023e-05 -4.0657321189265120e-05 0.0000000000000000e+00  5.4663135770423389e-05 -2.8812877615293424e-05 0.0000000000000000e+00  5.2538609876479536e-05 -2.7380506748784579e-05 0.0000000000000000e+00  4.6134428541237052e-05 -2.3870913499362227e-05 0.0000000000000000e+00  6.0772713220705511e-05 -3.1640310620940897e-05 0.0000000000000000e+00  1.0389055808366458e-05 -1.6961878961633371e-06 0.0000000000000000e+00  1.6338717923897098e-05 -6.0827865003354981e-06 0.0000000000000000e+00  1.8916814023188601e-05 -6.7242695959628987e-06 0.0000000000000000e+00  1.6170761135024968e-05 -5.0249590220997872e-06 0.0000000000000000e+00  2.5599317596978884e-05 -1.0994119767013525e-05 0.0000000000000000e+00  2.7864913873965353e-05 -1.2081344854216142e-05 0.0000000000000000e+00  2.6476851332318398e-05 -1.0985770451845684e-05 0.0000000000000000e+00  2.6875152575496619e-05 -1.2552982973698382e-05 0.0000000000000000e+00  1.8268271404026676e-05 -6.6506227496475496e-06 0.0000000000000000e+00  4.4723459333839436e-05 -2.2902826577553902e-05 0.0000000000000000e+00  4.6105369158059583e-05 -2.4266767289857052e-05 0.0000000000000000e+00  4.3146461004248078e-05 -2.2561316429230616e-05 0.0000000000000000e+00  3.6161314696993394e-05 -1.8567502846008739e-05 0.0000000000000000e+00  3.4606999023535271e-05 -1.7134825407487387e-05 0.0000000000000000e+00  3.7929982309170856e-05 -1.8885204391350300e-05 0.0000000000000000e+00  3.5941944461162496e-05 -1.6888838804484484e-05 0.0000000000000000e+00  5.2798076373732356e-05 -2.8118475899774945e-05 0.0000000000000000e+00  3.3996021554484490e-01 5.8925761411038551e-05 0.0000000000000000e+00  3.3994594204938466e-01 4.4573024609328994e-05 0.0000000000000000e+00  3.3993079862598913e-01 4.7602988682713928e-05 0.0000000000000000e+00  3.3990910493547410e-01 6.3275174342148675e-05 0.0000000000000000e+00  3.3992151488080508e-01 7.8255177501522881e-05 0.0000000000000000e+00  3.3994035667042366e-01 7.4887852273669149e-05 0.0000000000000000e+00  3.3995694671906251e-01 9.4954692274995805e-05 0.0000000000000000e+00  3.3994075887901093e-01 1.5000379334368460e-05 0.0000000000000000e+00  3.3996274615274819e-01 3.0505870784793773e-05 0.0000000000000000e+00  3.3996141846375594e-01 1.4862412148726003e-06 0.0000000000000000e+00  3.3995994474647345e-01 7.4353880123678157e-06 0.0000000000000000e+00  0.0000000000000000e+00 0.0000000000000000e+00 0.0000000000000000e+00  3.7989647767472559e-06 -9.7070213271289086e-07 0.0000000000000000e+00  9.2502552673005491e-06 -1.4615624021477730e-06 0.0000000000000000e+00  3.3995001829463140e-01 9.6336096019499525e-06 0.0000000000000000e+00  1.2305563618443663e-05 -3.8741139935500303e-06 0.0000000000000000e+00  3.3995543426771185e-01 4.9564370853982794e-06 0.0000000000000000e+00  8.0866905657341213e-06 -2.4517367665243688e-06 0.0000000000000000e+00  3.3994518728748713e-01 1.5690606234215233e-05 0.0000000000000000e+00  2.7494243283036927e-06 1.5279747359281516e-08 0.0000000000000000e+00  3.3996382466648883e-01 2.8897912093388741e-07 0.0000000000000000e+00  3.3991135855996957e-01 9.3247576771353073e-05 0.0000000000000000e+00  3.3993237737981813e-01 3.6854657264977432e-05 0.0000000000000000e+00  3.0236386842428187e-05 -1.4333342249490385e-05 0.0000000000000000e+00  4.6455931801523800e-05 -2.4357208612388429e-05 0.0000000000000000e+00  2.4921670656474492e-05 -1.0167541255590065e-05 0.0000000000000000e+00  5.8311388908152032e-05 -3.0356504960819282e-05 0.0000000000000000e+00  6.9348130163400106e-05 -2.6773952224030636e-05 0.0000000000000000e+00  3.3990713322539795e-01 2.3905102080872559e-04 0.0000000000000000e+00  3.3988569632720944e-01 1.9700986559891622e-04 0.0000000000000000e+00  3.3993511568573492e-01 1.3575313957877374e-04 0.0000000000000000e+00  4.2004508945703621e-05 -2.1523303907013867e-05 0.0000000000000000e+00  3.3994701178586928e-01 6.1426851743693849e-05 0.0000000000000000e+00  0.0000000000000000e+00 0.0000000000000000e+00 0.0000000000000000e+00  3.3996606531375950e-01 0.0000000000000000e+00 0.0000000000000000e+00  3.3995379556738309e-01 2.8270841429038426e-05 0.0000000000000000e+00  3.3992054620585321e-01 6.5393877791362155e-05 0.0000000000000000e+00  5.2038028133818624e-05 -2.7658458905568539e-05 0.0000000000000000e+00  3.7301535888526921e-05 -1.9030347803725798e-05 0.0000000000000000e+00  5.6162494135912440e-05 -2.8552973914175025e-05 0.0000000000000000e+00  7.3652949653813953e-05 -3.9821061795080856e-05 0.0000000000000000e+00  3.3984252625587080e-01 2.6730544288999667e-04 0.0000000000000000e+00  3.3992875096688158e-01 1.8154353234621783e-04 0.0000000000000000e+00  3.3989977494619417e-01 1.3533156874904461e-04 0.0000000000000000e+00  2.1378539843607802e-05 -8.3138343919792868e-06 0.0000000000000000e+00  3.2280421332639055e-05 -1.4893660946349900e-05 0.0000000000000000e+00  3.3994025668898648e-01 1.0145243900098197e-04 0.0000000000000000e+00  1.2404827065962327e-05 -2.9034646232166006e-06 0.0000000000000000e+00  1.6321529479965489e-05 -5.5850280746129654e-06 0.0000000000000000e+00  3.3995833024060795e-01 1.3339611136953546e-05 0.0000000000000000e+00  3.3994599446326301e-01 8.6460237699175117e-05 0.0000000000000000e+00  3.6197542524330154e-05 -1.7455211649431289e-05 0.0000000000000000e+00  5.9919963247915804e-06 -7.4949747582237916e-08 0.0000000000000000e+00  3.3995585618188129e-01 6.7310141027546032e-06 0.0000000000000000e+00  3.3996226751525538e-01 3.2116111854423343e-06 0.0000000000000000e+00  9.9158532615807851e-06 -2.3351332850356032e-06 0.0000000000000000e+00  3.3990213353499771e-01 1.0828112250091415e-04 0.0000000000000000e+00  2.6280169965571720e-05 -1.1768292534075046e-05 0.0000000000000000e+00  3.3995491389502080e-01 3.7181958271441421e-05 0.0000000000000000e+00  4.9531180000841080e-05 -2.6265634310785195e-05 0.0000000000000000e+00  6.1713776812953518e-05 -3.1644553664533563e-05 0.0000000000000000e+00  6.7498287392439839e-05 -3.4491296896651868e-05 0.0000000000000000e+00  3.3992533483753967e-01 2.2414421387483563e-04 0.0000000000000000e+00  3.3993185395162068e-01 1.9979188011375320e-04 0.0000000000000000e+00  3.3989041763787897e-01 1.5258854362739361e-04 0.0000000000000000e+00  1.7690663326898121e-05 -5.9961631536020159e-06 0.0000000000000000e+00  3.3996094207297434e-01 5.1103869736232295e-05 0.0000000000000000e+00  4.6810367973853069e-05 -2.4319487965348350e-05 0.0000000000000000e+00  3.3993855611017637e-01 1.5125833383084820e-04 0.0000000000000000e+00  2.2335589434879194e-05 -8.6775534532006106e-06 0.0000000000000000e+00  3.3991292407004453e-01 5.5410600036390691e-05 0.0000000000000000e+00  3.8589414272297544e-05 -1.9992248456693917e-05 0.0000000000000000e+00  4.8763306654393475e-05 -2.5029362017056510e-05 0.0000000000000000e+00  6.1137315815224267e-05 -2.7852442007169645e-05 0.0000000000000000e+00  1.2675100184030144e-04 1.7800322792803929e-05 0.0000000000000000e+00  3.3984629907031472e-01 2.3833084673046737e-04 0.0000000000000000e+00  3.3986965642833994e-01 1.7796873923815883e-04 0.0000000000000000e+00  3.3992856388574311e-01 2.9084368188156780e-05 0.0000000000000000e+00  3.3996132171073845e-01 2.3339955265248611e-06 0.0000000000000000e+00  1.8935930906529604e-06 1.0024223293148001e-06 0.0000000000000000e+00  3.3996505885403833e-01 -1.1255636868755838e-07 0.0000000000000000e+00  3.1080667615110001e-06 -1.6273941676908456e-06 0.0000000000000000e+00  1.9211281459759931e-05 -6.8244906025417064e-06 0.0000000000000000e+00  3.3993792055931332e-01 3.9576539896155549e-05 0.0000000000000000e+00  4.6360349637096852e-05 -2.4420380927636826e-05 0.0000000000000000e+00  6.5112030362942611e-05 -3.0340774182369011e-05 0.0000000000000000e+00  3.3989922857364391e-01 2.0355415191588351e-04 0.0000000000000000e+00  3.3992996748296322e-01 8.3753987997746396e-05 0.0000000000000000e+00  3.4583192403496805e-05 -1.6843140944174244e-05 0.0000000000000000e+00  2.8653331575836088e-05 -1.2795896517586124e-05 0.0000000000000000e+00  5.5358202164594799e-05 -2.8753017063850571e-05 0.0000000000000000e+00  3.3980732597711827e-01 2.7135329688826094e-04 0.0000000000000000e+00  3.3992422179796267e-01 1.0975428911100267e-04 0.0000000000000000e+00  3.3990533040387744e-01 1.5156152039164466e-04 0.0000000000000000e+00  3.3994835058760653e-01 1.7224708795835352e-05 0.0000000000000000e+00  3.5270906251487812e-06 4.4590918254042084e-07 0.0000000000000000e+00  4.5163085864480471e-05 -2.3557283022161007e-05 0.0000000000000000e+00  3.3995104723401298e-01 5.1121464487583976e-05 0.0000000000000000e+00  3.3988542796147031e-01 1.8039494764884940e-04 0.0000000000000000e+00  3.3993472367091759e-01 2.9300837926761604e-05 0.0000000000000000e+00  5.9477076980869209e-05 -2.9086765764040793e-05 0.0000000000000000e+00  3.3986793662075682e-01 2.3932467905546877e-04 0.0000000000000000e+00  8.5830270350174630e-05 -1.4932914128621628e-05 0.0000000000000000e+00  4.9303035150910982e-05 -2.5687932193700287e-05 0.0000000000000000e+00  3.3995075550735937e-01 7.0039155792227316e-05 0.0000000000000000e+00  4.0567190579278805e-05 -2.0371890540818119e-05 0.0000000000000000e+00  3.3995401423073285e-01 1.2651516369400668e-04 0.0000000000000000e+00  2.8907761317246539e-05 -1.2404951982176615e-05 0.0000000000000000e+00  1.3930949034720495e-05 -3.7139734914985687e-06 0.0000000000000000e+00  2.1672939073822246e-05 -8.2662448398580167e-06 0.0000000000000000e+00  3.3992552386765118e-01 1.4808485507153941e-04 0.0000000000000000e+00  3.3991417719659101e-01 1.0274672352643192e-04 0.0000000000000000e+00  2.8783141226831342e-05 -1.3177065810086682e-05 0.0000000000000000e+00  4.8638223312469154e-05 -2.5764065080182928e-05 0.0000000000000000e+00  3.3994758394464686e-01 3.6407489095699981e-05 0.0000000000000000e+00  6.6264490297482574e-05 -3.3346055315108568e-05 0.0000000000000000e+00  3.3991785114448297e-01 1.9796790127924564e-04 0.0000000000000000e+00  3.3996399008394734e-01 1.0283712015260805e-06 0.0000000000000000e+00  3.3992180235266922e-01 5.5733561718338865e-05 0.0000000000000000e+00  3.9776922857890672e-05 -2.0604606585595099e-05 0.0000000000000000e+00  8.5422965286437032e-06 -7.2239074030737866e-07 0.0000000000000000e+00  5.9673715781961720e-05 -3.0717422439835124e-05 0.0000000000000000e+00  3.3991029299464370e-01 2.3134506812538897e-04 0.0000000000000000e+00  3.3994221970873340e-01 1.2421928661035308e-04 0.0000000000000000e+00  2.7956423884787389e-05 -1.1977759008036944e-05 0.0000000000000000e+00  3.0572666551480072e-05 -1.3651171593344545e-05 0.0000000000000000e+00  3.3994362281579271e-01 1.1193926216852428e-04 0.0000000000000000e+00  3.3994224490844716e-01 5.3026571923425967e-05 0.0000000000000000e+00  4.3349944278158027e-05 -2.2567096910833815e-05 0.0000000000000000e+00  6.0518537312617006e-05 -3.0567730663253175e-05 0.0000000000000000e+00  3.3990034029281324e-01 2.2496766673551290e-04 0.0000000000000000e+00  2.3822232614921157e-05 -1.0080511139491457e-05 0.0000000000000000e+00  3.3989866166358990e-01 1.2007439032587075e-04 0.0000000000000000e+00  3.3991740147777710e-01 1.7582785734538987e-04 0.0000000000000000e+00  7.8718725833831313e-05 -3.7133005704616126e-05 0.0000000000000000e+00  5.2111724533082357e-05 -2.7578425569015696e-05 0.0000000000000000e+00  3.3994904559776812e-01 2.5961256049067749e-05 0.0000000000000000e+00  3.2029899008855472e-05 -1.5686416624984561e-05 0.0000000000000000e+00  3.3991016113413886e-01 8.3342829974386137e-05 0.0000000000000000e+00  1.6124607921910857e-05 -5.1090359758232816e-06 0.0000000000000000e+00  2.3756043113463690e-05 -9.6880881224399950e-06 0.0000000000000000e+00  3.3991221338448496e-01 1.2905985446838870e-04 0.0000000000000000e+00  3.7518417963532053e-05 -1.8992677350063710e-05 0.0000000000000000e+00  3.3992752590318376e-01 6.8695678296592862e-05 0.0000000000000000e+00  1.9397630373291198e-05 -7.1412929051509808e-06 0.0000000000000000e+00  3.3993646578612613e-01 1.6760407409994207e-04 0.0000000000000000e+00  9.6441927300477202e-05 -5.9288937747010325e-05 0.0000000000000000e+00  5.4761125033458332e-05 -2.9034856838806182e-05 0.0000000000000000e+00  3.3995781991486229e-01 2.2056029766997993e-05 0.0000000000000000e+00  3.3983557223266453e-01 1.8033021566780946e-04 0.0000000000000000e+00  5.8663944600230721e-05 -3.0899563514013098e-05 0.0000000000000000e+00  3.3778342626775680e-05 -1.7098802850137667e-05 0.0000000000000000e+00  3.3990534872775618e-01 7.1602359464276958e-05 0.0000000000000000e+00  3.3987174981772750e-01 2.5116617246783948e-04 0.0000000000000000e+00  5.6488968489317367e-05 -2.9486794140790937e-05 0.0000000000000000e+00  3.3995350375533856e-01 1.5123692509211507e-05 0.0000000000000000e+00  2.0361685932912673e-05 -8.0653842526605162e-06 0.0000000000000000e+00  3.3988366145398741e-01 1.3076298742482683e-04 0.0000000000000000e+00  3.3993664484939551e-01 1.9108093394220045e-05 0.0000000000000000e+00  3.3993932477169020e-01 2.0750397822085708e-05 0.0000000000000000e+00  3.3946198568536474e-05 -1.6202867389504408e-05 0.0000000000000000e+00  3.3993571835080194e-01 9.0466081414513732e-05 0.0000000000000000e+00  3.3995927600484893e-01 5.2111236471319845e-06 0.0000000000000000e+00  7.3839320596733388e-05 -2.3787288173182055e-05 0.0000000000000000e+00  6.5387591489817916e-05 -2.8209976610009293e-05 0.0000000000000000e+00  4.3571477601643177e-05 -2.2644680210985931e-05 0.0000000000000000e+00  4.3366349070422413e-05 -2.2656856306335580e-05 0.0000000000000000e+00  3.3986116595145116e-01 2.0491961044397840e-04 0.0000000000000000e+00  3.3987476076528733e-01 2.1221545957785627e-04 0.0000000000000000e+00  3.3992064285867457e-01 4.1307954000569815e-05 0.0000000000000000e+00  3.3992573473031990e-01 4.4280766446245395e-05 0.0000000000000000e+00  3.3979431990401260e-01 3.0498332146599363e-04 0.0000000000000000e+00  3.3959285852968724e-01 2.4691394772036619e-04 0.0000000000000000e+00  5.4335437545075957e-05 -2.6933392306764241e-05 0.0000000000000000e+00  5.3337255734790110e-05 -2.7295489191965391e-05 0.0000000000000000e+00  2.4456069511614519e-06 -8.9811831987681345e-07 0.0000000000000000e+00  3.3996275854358854e-01 1.0944479984623069e-06 0.0000000000000000e+00  5.0352755484441731e-05 -2.6462273464042438e-05 0.0000000000000000e+00  8.3383792427970814e-05 -2.7253808309948622e-05 0.0000000000000000e+00  3.3994084436506594e-01 2.8204279295051685e-05 0.0000000000000000e+00  3.39938648921930