<?xml version="1.0"?>
<VTKFile type="UnstructuredGrid"  version="0.1"  >
<UnstructuredGrid>
<Piece  NumberOfPoints="820" NumberOfCells="1464">
<Points>
<DataArray  type="Float64"  NumberOfComponents="3"  format="ascii">0 0.1 0  0 0 0  1 0 0  1 0.1 0  0.5 0 0  0.5 0.1 0  0.25 0 0  0.25 0.1 0  0.75 0.1 0  0.75 0 0  0.375 0.1 0  0.375 0 0  0.125 0 0  0.125 0.1 0  0.625 0 0  0.625 0.1 0  0.875 0.1 0  0.875 0 0  0.6875 0.1 0  0.6875 0 0  0.5625 0 0  0.5625 0.1 0  0.0625 0.1 0  0.0625 0 0  0.1875 0.1 0  0.1875 0 0  0.3125 0 0  0.3125 0.1 0  0.4375 0.1 0  0.4375 0 0  0.8125 0 0  0.8125 0.1 0  0.9375 0.1 0  0.9375 0 0  0.84375 0.05000000000000001 0  0.78125 0.05 0  0.34375 0.05000000000000001 0  0.28125 0.05 0  0.15625 0.05 0  0.21875 0.05000000000000001 0  0 0.05 0  0.09375 0.05000000000000001 0  0.40625 0.05 0  0.46875 0.05000000000000001 0  0.53125 0.05 0  0.59375 0.05000000000000001 0  0.65625 0.05 0  0.71875 0.05000000000000001 0  0.90625 0.05 0  1 0.05 0  0.046875 0.04453125000000001 0  0.953125 0.05546875 0  0.96875 0 0  0.03125 0.1 0  0.03125 0 0  0.96875 0.1 0  1 0.07500000000000001 0  0.875 0.06523437500000001 0  0.8715625 0.03261718750000001 0  0.84375 0 0  0.90625 0.1 0  0.625 0.06523437500000001 0  0.6215625 0.03261718750000001 0  0.59375 0 0  0.6875 0.034765625 0  0.6840625 0.0673828125 0  0.65625 0.1 0  0.71875 0 0  0.5625 0.06523437500000001 0  0.5590625 0.03261718750000001 0  0.53125 0 0  0.65625 0 0  0.59375 0.1 0  0.5 0.06523437500000001 0  0.4965625 0.03261718750000001 0  0.46875 0 0  0.53125 0.1 0  0.4375 0.06523437500000001 0  0.4340625 0.03261718750000001 0  0.40625 0 0  0.46875 0.1 0  0.375 0.06523437500000001 0  0.3715625 0.03261718750000001 0  0.34375 0 0  0.40625 0.1 0  0.09375 0 0  0.09375 0.1 0  0.125 0.06523437500000001 0  0.1215625 0.03261718750000001 0  0.1875 0.034765625 0  0.1840625 0.0673828125 0  0.15625 0.1 0  0.21875 0 0  0.15625 0 0  0.28125 0.1 0  0.3125 0.06523437500000001 0  0.3090625 0.03261718750000001 0  0.28125 0 0  0.25 0.034765625 0  0.2534375 0.0673828125 0  0.21875 0.1 0  0.34375 0.1 0  0.78125 0.1 0  0.8125 0.06523437500000001 0  0.8090625 0.03261718750000001 0  0.78125 0 0  0.75 0.034765625 0  0.7534375 0.0673828125 0  0.71875 0.1 0  0.90625 0 0  0.84375 0.1 0  0.9740776699029127 0.03143583131067961 0  0.921875 0.075 0  0 0.025 0  0.02592233009708738 0.06856416868932039 0  0.0725 0.028515625 0  0.921875 0.025 0  0.078125 0.07500000000000001 0  0.9484670937186905 0.0242372460741816 0  0.05153290628130947 0.07576275392581842 0  0.8963594872172794 0.02643561701079966 0  0.02229817708333334 0.0375 0  0.9777018229166666 0.06250000000000001 0  0.72590087890625 0.025 0  0.8345789124085022 0.025 0  0.22590087890625 0.025 0  0.3345789124085023 0.025 0  0.15996337890625 0.075 0  0.39909912109375 0.075 0  0.4595789124085023 0.025 0  0.52409912109375 0.075 0  0.5845789124085022 0.025 0  0.65996337890625 0.075 0  0.27753662109375 0.075 0  0.77753662109375 0.075 0  0 0.07500000000000001 0  1 0.025 0  0.85090087890625 0.07500000000000001 0  0.77409912109375 0.025 0  0.35090087890625 0.07500000000000001 0  0.27409912109375 0.025 0  0.3970789124085022 0.025 0  0.47590087890625 0.07500000000000001 0  0.5220789124085022 0.025 0  0.60090087890625 0.07500000000000001 0  0.66340087890625 0.025 0  0.16340087890625 0.025 0  0.2095789124085023 0.07500000000000001 0  0.7095789124085022 0.07500000000000001 0  0.0974991439537346 0.02496950333675565 0  0.1029665898617512 0.07685681883640554 0  0.8970334101382489 0.07685681883640554 0  0.7331321502083639 0.0805418246751822 0  0.2331321502083639 0.08054182467518221 0  0.04967773437499999 0.02050781250000001 0  0.9302821601941748 0.04763728762135922 0  0.9453125 0.07773437499999999 0  0.06981448887637284 0.05242311804773303 0  0.703125 0.0173828125 0  0.203125 0.0173828125 0  0.828125 0.08261718750000001 0  0.328125 0.08261718750000001 0  0.4213608787615672 0.08215505604972331 0  0.453125 0.08261718750000001 0  0.5463608787615671 0.08215505604972331 0  0.578125 0.08261718750000001 0  0.6405370048634059 0.0181271643224308 0  0.1405370048634059 0.0181271643224308 0  0.796875 0.1 0  0.296875 0.1 0  0.6389903131525874 0.08261718750000001 0  0.1389903131525873 0.08261718750000001 0  0.796875 0 0  0.296875 0 0  0.359375 0 0  0.421875 0 0  0.484375 0 0  0.546875 0 0  0.609375 0 0  0.859375 0 0  0.984375 0 0  0.015625 0 0  0.9808265015870887 0.08306437698386088 0  0.015625 0.1 0  0.140615310157384 0.03789815460447876 0  0.8258710430305984 0.04237660226422156 0  0.3258710430305984 0.04237660226422154 0  0.4508710430305984 0.04237660226422154 0  0.5758710430305984 0.04237660226422156 0  0.73925254007477 0.05238802290978471 0  0.23925254007477 0.05238802290978471 0  0.19824745992523 0.05238802290978471 0  0.3883710430305984 0.04237660226422155 0  0.5133710430305984 0.04237660226422155 0  0.69824745992523 0.05238802290978471 0  0.6406153101573839 0.03789815460447876 0  0.8875652355519991 0.04398459561477483 0  0.03011990291140283 0.01954869700666445 0  0.2976228417042103 0.07944206017604956 0  0.7976228417042103 0.07944206017604956 0  0.6048261925064409 0.0202852140350185 0  0.8548261925064409 0.0202852140350185 0  0.4173261925064409 0.02028521403501849 0  0.5423261925064409 0.02028521403501849 0  0.479826192506441 0.02028521403501848 0  0.354826192506441 0.02028521403501848 0  0.7612196085333947 0.08469269433495656 0  0.2612196085333947 0.08469269433495656 0  0.671875 0.1 0  0.171875 0.1 0  0.1138156987561534 0.01531102667280419 0  0.1439032206506398 0.06434174268079966 0  0.6439032206506399 0.06434174268079966 0  0.7102169938849521 0.03403655887996306 0  0.2102169938849521 0.03403655887996306 0  0.331272668838501 0.06407394409179688 0  0.8312726688385009 0.06407394409179688 0  0.456272668838501 0.06407394409179688 0  0.5812726688385009 0.06407394409179688 0  0.9626931005513372 0.08290734481438196 0  0.7935362330470901 0.01983307912641665 0  0.2935362330470901 0.01983307912641665 0  0.078125 0 0  0.4143262322415116 0.06583278773374907 0  0.5393262322415115 0.06583278773374907 0  0.6756954193768612 0.08284197013692297 0  0.1756954193768612 0.08284197013692297 0  0.1934564775596677 0.08246105735569852 0  0.6934564775596677 0.0824610573556985 0  0.7948904737904949 0.06168801049385652 0  0.2948904737904949 0.06168801049385652 0  0.42558837890625 0.05 0  0.55058837890625 0.05 0  0.185643310546875 0.0173828125 0  0.685643310546875 0.0173828125 0  0.6085613945093048 0.05928612183988766 0  0.4835613945093048 0.05928612183988766 0  0.3585613945093048 0.05928612183988766 0  0.8585613945093048 0.05928612183988766 0  0.2430157823768409 0.0173828125 0  0.743015782376841 0.0173828125 0  0.11308837890625 0.05 0  0.1710613945093048 0.04071387816011236 0  0.6710613945093048 0.04071387816011236 0  0.2664386054906952 0.04071387816011236 0  0.7664386054906952 0.04071387816011236 0  0.1200872144236349 0.08261718750000001 0  0.618015782376841 0.08261718750000001 0  0.4930157823768409 0.08261718750000001 0  0.3680157823768409 0.08261718750000001 0  0.868015782376841 0.08261718750000001 0  0.515625 0.1 0  0.390625 0.1 0  0.265625 0 0  0.765625 0 0  0.516365031953596 0.05946768293606444 0  0.3913650319535959 0.05946768293606444 0  0.8926135952226929 0.06033018746614476 0  0.171875 0 0  0.671875 0 0  0.890625 0 0  0.8808652108632187 0.0171078614816925 0  0.2274441083295474 0.06456313374723947 0  0.7274441083295474 0.06456313374723946 0  0.9350285939903868 0.06406852472525566 0  0.453125 0 0  0.4433265752246126 0.01710378970181546 0  0.328125 0 0  0.3183265752246126 0.01710378970181546 0  0.578125 0 0  0.5683265752246126 0.01710378970181545 0  0.828125 0 0  0.8183265752246126 0.01710378970181545 0  0.515625 0 0  0.5058265752246126 0.01710378970181545 0  0.390625 0 0  0.3808265752246126 0.01710378970181545 0  0.01564771141956889 0.08260299286276945 0  0.9843522885804311 0.01739700713723054 0  0.3551736619148977 0.03733645281383641 0  0.4801736619148977 0.03733645281383641 0  0.8551736619148977 0.03733645281383642 0  0.7687346279121444 0.06091681090943113 0  0.2687346279121444 0.06091681090943113 0  0.6687653720878556 0.06091681090943113 0  0.1687653720878556 0.06091681090943113 0  0.6051736619148977 0.03733645281383642 0  0.2924478939734164 0.03697522410746614 0  0.7924478939734163 0.03697522410746614 0  0.8719142286486647 0.04906985056606887 0  0.6274213820068905 0.04848945596065109 0  0.4983341418505795 0.04892020701904073 0  0.3733341418505795 0.04892020701904073 0  0.3108341418505795 0.04892020701904073 0  0.8108341418505794 0.04892020701904073 0  0.6242024164762008 0.01640567476785111 0  0.3848561971730207 0.08410836408489761 0  0.5098561971730207 0.08410836408489761 0  0.2598561971730207 0.01589163591510238 0  0.7598561971730207 0.01589163591510238 0  0.890625 0.1 0  0.9582054159658413 0.03874795528975266 0  0.03565822065430611 0.08308352918541601 0  0.9643417793456939 0.016916470814584 0  0 0.0625 0  0.0168287001921521 0.05388159890776699 0  0.0417945840341587 0.06125204471024735 0  0.9831712998078479 0.04611840109223304 0  0.5622607296296599 0.08116332765030569 0  0.4372607296296599 0.08116332765030566 0  0.046875 0.1 0  0.953125 0 0  0.415919189453125 0.03668247284720479 0  0.540919189453125 0.03668247284720479 0  0.0859375 0.01393925506164327 0  0.109375 0.1 0  0.1338555271916189 0.05216484236021472 0  0.953125 0.1 0  0.140625 0 0  0.640625 0 0  0.546875 0.1 0  0.421875 0.1 0  0.203125 0 0  0.703125 0 0  0.046875 0 0  0.234375 0.1 0  0.734375 0.1 0  0.078125 0.1 0  0.921875 0 0  0.921875 0.1 0  0.828125 0.1 0  0.328125 0.1 0  0.453125 0.1 0  0.578125 0.1 0  0.640625 0.1 0  0.140625 0.1 0  0.984375 0.1 0  0.765625 0.1 0  0.265625 0.1 0  0.109375 0 0  0.203125 0.1 0  0.703125 0.1 0  0.234375 0 0  0.734375 0 0  0.609375 0.1 0  0.484375 0.1 0  0.359375 0.1 0  0.859375 0.1 0  0.03162846341645094 0.04971906156616034 0  0.9677597279973049 0.05078312969016881 0  0.8125319459969864 0.08431483734279674 0  0.3125319459969864 0.08431483734279674 0  0.01533347852251798 0.02378565849770013
[...]
<PointData  Vectors="damage"> 
<DataArray  type="Float64"  Name="damage"  NumberOfComponents="3" format="ascii">0.0000000000000000e+00 0.0000000000000000e+00 0.0000000000000000e+00  0.0000000000000000e+00 0.0000000000000000e+00 0.0000000000000000e+00  9.9156769049846522e-02 0.0000000000000000e+00 0.0000000000000000e+00  9.9156769049846522e-02 0.0000000000000000e+00 0.0000000000000000e+00  4.9576111477957235e-02 1.5238330502135491e-03 0.0000000000000000e+00  4.9580184619075110e-02 -1.4594766964976427e-03 0.0000000000000000e+00  2.4719580561306090e-02 1.5248755847552232e-03 0.0000000000000000e+00  2.4714881272198345e-02 -1.4583562114248766e-03 0.0000000000000000e+00  7.4442196284707343e-02 -1.4742413701361171e-03 0.0000000000000000e+00  7.4435935618337265e-02 1.5089943420806733e-03 0.0000000000000000e+00  3.7147949284789046e-02 -1.4561928914441466e-03 0.0000000000000000e+00  3.7147441771177264e-02 1.5271182372720419e-03 0.0000000000000000e+00  1.2292684326000856e-02 1.5221043778583341e-03 0.0000000000000000e+00  1.2281304421196057e-02 -1.4750422735910968e-03 0.0000000000000000e+00  6.2005607358376097e-02 1.5171191031453594e-03 0.0000000000000000e+00  6.2011595010458491e-02 -1.4661915386419270e-03 0.0000000000000000e+00  8.6871864344552394e-02 -1.4888053916924605e-03 0.0000000000000000e+00  8.6866604835387468e-02 1.5087751754865909e-03 0.0000000000000000e+00  6.8226990208921312e-02 -1.4701895878124155e-03 0.0000000000000000e+00  6.8220657877803251e-02 1.5131153947531527e-03 0.0000000000000000e+00  5.5790755851118971e-02 1.5207757442544895e-03 0.0000000000000000e+00  5.5795992144441420e-02 -1.4625337859169914e-03 0.0000000000000000e+00  6.1450763592223699e-03 -1.4732742099356610e-03 0.0000000000000000e+00  6.1567152511077415e-03 1.5062156736683503e-03 0.0000000000000000e+00  1.8497576961156177e-02 -1.4624146676353290e-03 0.0000000000000000e+00  1.8505509119583353e-02 1.5212824630064592e-03 0.0000000000000000e+00  3.0933416681584350e-02 1.5268278971247125e-03 0.0000000000000000e+00  3.0931521290435388e-02 -1.4564773625800728e-03 0.0000000000000000e+00  4.3364166664489619e-02 -1.4572761208215849e-03 0.0000000000000000e+00  4.3361673366732870e-02 1.5260338715044576e-03 0.0000000000000000e+00  8.0651889411107250e-02 1.5052857045012079e-03 0.0000000000000000e+00  8.0657657936830426e-02 -1.4783596229084738e-03 0.0000000000000000e+00  9.3007001100025244e-02 -1.4852521686249055e-03 0.0000000000000000e+00  9.3000692442268607e-02 1.4960442080086389e-03 0.0000000000000000e+00  8.3761787235024074e-02 1.1585769535722100e-05 0.0000000000000000e+00  7.7546543896866507e-02 1.5351878164313019e-05 0.0000000000000000e+00  3.4040082240894290e-02 3.5653368367503885e-05 0.0000000000000000e+00  2.7824858745011734e-02 3.4615927788792997e-05 0.0000000000000000e+00  1.5394419806103666e-02 2.7096773984976438e-05 0.0000000000000000e+00  2.1609743474395825e-02 3.1804069269539888e-05 0.0000000000000000e+00  0.0000000000000000e+00 0.0000000000000000e+00 0.0000000000000000e+00  9.1594684078385724e-03 2.0454305900835432e-05 0.0000000000000000e+00  4.0255315918171192e-02 3.5194588309813770e-05 0.0000000000000000e+00  4.6470534786998238e-02 3.3497595744357994e-05 0.0000000000000000e+00  5.2685765513496602e-02 3.0810045325233894e-05 0.0000000000000000e+00  5.8900987176481921e-02 2.7396987197560169e-05 0.0000000000000000e+00  6.5116214480509554e-02 2.3511095760466874e-05 0.0000000000000000e+00  7.1331438186958057e-02 1.9409798151686921e-05 0.0000000000000000e+00  8.9997571217840799e-02 8.1968635744043376e-06 0.0000000000000000e+00  9.9156769049846508e-02 0.0000000000000000e+00 0.0000000000000000e+00  4.4369018101458263e-03 1.6542797525587386e-04 0.0000000000000000e+00  9.4726017922018124e-02 -1.4580255227456237e-04 0.0000000000000000e+00  9.5944878591539468e-02 1.2947418776545717e-03 0.0000000000000000e+00  3.1930047590335311e-03 -1.2638807256070946e-03 0.0000000000000000e+00  3.2250759212018934e-03 1.2878517894088890e-03 0.0000000000000000e+00  9.5951542900190326e-02 -1.2647359438928219e-03 0.0000000000000000e+00  9.9156769049846522e-02 0.0000000000000000e+00 0.0000000000000000e+00  8.6872354192996049e-02 -4.4879751817286618e-04 0.0000000000000000e+00  8.6528349097636612e-02 5.3284004427868643e-04 0.0000000000000000e+00  8.3760305258825482e-02 1.5050580706250747e-03 0.0000000000000000e+00  8.9963505270910488e-02 -1.5000839086421842e-03 0.0000000000000000e+00  6.2009498267301726e-02 -4.2899540946354136e-04 0.0000000000000000e+00  6.1665742769031057e-02 5.4428895628878360e-04 0.0000000000000000e+00  5.8898158659489809e-02 1.5190056356140810e-03 0.0000000000000000e+00  6.8222877339850108e-02 4.7595785310844017e-04 0.0000000000000000e+00  6.7883073633511731e-02 -4.9688632114560966e-04 0.0000000000000000e+00  6.5119318894989495e-02 -1.4681637808262717e-03 0.0000000000000000e+00  7.1328261593422954e-02 1.5110560367229270e-03 0.0000000000000000e+00  5.5794158542996401e-02 -4.2531484623378122e-04 0.0000000000000000e+00  5.5450650989048257e-02 5.4794028541694118e-04 0.0000000000000000e+00  5.2683412897399431e-02 1.5223951016651032e-03 0.0000000000000000e+00  6.5113106000263168e-02 1.5151445334024788e-03 0.0000000000000000e+00  5.8903819752310106e-02 -1.4643014177373090e-03 0.0000000000000000e+00  4.9578753590634413e-02 -4.2223637970073373e-04 0.0000000000000000e+00  4.9235633843700465e-02 5.5097858160767677e-04 0.0000000000000000e+00  4.6468871216671405e-02 1.5250504208742406e-03 0.0000000000000000e+00  5.2688109809648540e-02 -1.4609121893026972e-03 0.0000000000000000e+00  4.3363289255802163e-02 -4.2001184301407779e-04 0.0000000000000000e+00  4.3020682930781484e-02 5.5314501074598559e-04 0.0000000000000000e+00  4.0254540130143339e-02 1.5267304487681271e-03 0.0000000000000000e+00  4.6472203655872471e-02 -1.4582483123925796e-03 0.0000000000000000e+00  3.7147757224485947e-02 -4.1890756375280978e-04 0.0000000000000000e+00  3.6805810168555671e-02 5.5418214956997800e-04 0.0000000000000000e+00  3.4040411041766361e-02 1.5271507930101319e-03 0.0000000000000000e+00  4.0256077601257510e-02 -1.4565756452982494e-03 0.0000000000000000e+00  9.2018524716660031e-03 1.5273282577786458e-03 0.0000000000000000e+00  9.1892803936490380e-03 -1.4873296752038511e-03 0.0000000000000000e+00  1.2282944981796927e-02 -4.3487808117944314e-04 0.0000000000000000e+00  1.1945111018361727e-02 5.4722055307652475e-04 0.0000000000000000e+00  1.8503461609737260e-02 4.8420946790921342e-04 0.0000000000000000e+00  1.8158958308247149e-02 -4.8935934995229401e-04 0.0000000000000000e+00  1.5388505618481709e-02 -1.4665435880453228e-03 0.0000000000000000e+00  2.1612649644361121e-02 1.5232137927541224e-03 0.0000000000000000e+00  1.5398150085366505e-02 1.5200493566514589e-03 0.0000000000000000e+00  2.7823226657692313e-02 -1.4571984985405043e-03 0.0000000000000000e+00  3.0932166765718912e-02 -4.1917435814447168e-04 0.0000000000000000e+00  3.0591004680372319e-02 5.5382815753802063e-04 0.0000000000000000e+00  2.7826489022560567e-02 1.5260836486931117e-03 0.0000000000000000e+00  2.4717988986078011e-02 4.8789242433360690e-04 0.0000000000000000e+00  2.5058294583326538e-02 -4.8498899493845047e-04 0.0000000000000000e+00  2.1606352950331104e-02 -1.4599981855506494e-03 0.0000000000000000e+00  3.4039763738839761e-02 -1.4561413248032156e-03 0.0000000000000000e+00  7.7549814876979511e-02 -1.4762081941796729e-03 0.0000000000000000e+00  8.0654922327616424e-02 -4.4113816650329747e-04 0.0000000000000000e+00  8.0311264398059273e-02 5.3226458087706667e-04 0.0000000000000000e+00  7.7543746144212181e-02 1.5069736851169478e-03 0.0000000000000000e+00  7.4438095241752433e-02 4.7182438860485064e-04 0.0000000000000000e+00  7.4781942445542260e-02 -5.0141328164629269e-04 0.0000000000000000e+00  7.1334610518854258e-02 -1.4722292216429998e-03 0.0000000000000000e+00  8.9958952907362930e-02 1.5169801828041651e-03 0.0000000000000000e+00  8.3765755674232903e-02 -1.4816740754778914e-03 0.0000000000000000e+00  9.6772780805585337e-02 3.6613847446611701e-04 0.0000000000000000e+00  9.1539430987309545e-02 -7.5785712995114914e-04 0.0000000000000000e+00  0.0000000000000000e+00 0.0000000000000000e+00 0.0000000000000000e+00  2.3936292776487091e-03 -3.6987954575515937e-04 0.0000000000000000e+00  7.0501226393418527e-03 6.7331851564381791e-04 0.0000000000000000e+00  9.1538746155564399e-02 7.7321241960130618e-04 0.0000000000000000e+00  7.6128162001253413e-03 -7.4553458311658405e-04 0.0000000000000000e+00  9.4194177375274288e-02 7.5786006758189663e-04 0.0000000000000000e+00  4.9553520183798216e-03 -7.3571316428454173e-04 0.0000000000000000e+00  8.8995412451963130e-02 7.2434108815265606e-04 0.0000000000000000e+00  2.0141154170040198e-03 2.2504400778165833e-04 0.0000000000000000e+00  9.7149922376586970e-02 -2.1925072652155726e-04 0.0000000000000000e+00  7.2040982661892614e-02 7.6475389387038067e-04 0.0000000000000000e+00  8.2848426339599907e-02 7.5870310545565723e-04 0.0000000000000000e+00  2.2322252591641521e-02 7.7794334809327059e-04 0.0000000000000000e+00  3.3128346471536098e-02 7.8138952035376220e-04 0.0000000000000000e+00  1.5761423160273465e-02 -7.1963078094144754e-04 0.0000000000000000e+00  3.9544507684540382e-02 -7.1053569892524254e-04 0.0000000000000000e+00  4.5557772747897372e-02 7.7962018195822298e-04 0.0000000000000000e+00  5.1975773630598146e-02 -7.1468159443535499e-04 0.0000000000000000e+00  5.7987612247077325e-02 7.7375005536820505e-04 0.0000000000000000e+00  6.5487024424766185e-02 -7.2256136854748087e-04 0.0000000000000000e+00  2.7454708238992060e-02 -7.1136679442517978e-04 0.0000000000000000e+00  7.7178881147997494e-02 -7.3016518224255868e-04 0.0000000000000000e+00  0.0000000000000000e+00 0.0000000000000000e+00 0.0000000000000000e+00  9.9156769049846522e-02 0.0000000000000000e+00 0.0000000000000000e+00  8.4474122988159747e-02 -7.3672100776444574e-04 0.0000000000000000e+00  7.6834022876949112e-02 7.6157418903146463e-04 0.0000000000000000e+00  3.4751081958527719e-02 -7.1018913176848139e-04 0.0000000000000000e+00  2.7114664826332593e-02 7.8015567489148508e-04 0.0000000000000000e+00  3.9343008505722789e-02 7.8114451398050833e-04 0.0000000000000000e+00  4.7182504770070785e-02 -7.1261351033823225e-04 0.0000000000000000e+00  5.1772641689775911e-02 7.7706622822186911e-04 0.0000000000000000e+00  5.9613515569152384e-02 -7.1886525569469205e-04 0.0000000000000000e+00  6.5825779544693985e-02 7.6887034851500955e-04 0.0000000000000000e+00  1.6107994865747419e-02 7.7432316461444148e-04 0.0000000000000000e+00  2.0695960203365900e-02 -7.1458812880756612e-04 0.0000000000000000e+00  7.0421004437170434e-02 -7.2580599050016739e-04 0.0000000000000000e+00  9.5522569292730113e-03 7.8245276788354754e-04 0.0000000000000000e+00  1.0091008082972147e-02 -7.9371136382668970e-04 0.0000000000000000e+00  8.9062233287779263e-02 -8.0630290264349376e-04 0.0000000000000000e+00  7.2763565621028051e-02 -8.9266937212302848e-04 0.0000000000000000e+00  2.3038119552658567e-02 -8.7854304907343506e-04 0.0000000000000000e+00  4.8022585861107001e-03 8.6322295825016809e-04 0.0000000000000000e+00  9.2419847795455687e-02 7.8601509598966339e-05 0.0000000000000000e+00  9.3868412254750497e-02 -8.1353261277691954e-04 0.0000000000000000e+00  6.7486491594269281e-03 -5.7156091320829269e-05 0.0000000000000000e+00  6.9775578466060431e-02 9.9350698527264094e-04 0.0000000000000000e+00  2.0058103153560512e-02 1.0037461981632291e-03 0.0000000000000000e+00  8.2209977554850946e-02 -9.6111558568069157e-04 0.0000000000000000e+00  3.2485846404540199e-02 -9.3759419270555218e-04 0.0000000000000000e+00  4.1758614151687683e-02 -9.2444166739084834e-04 0.0000000000000000e+00  4.4917665537225732e-02 -9.3908920814177817e-04 0.0000000000000000e+00  5.4190019426956997e-02 -9.2926817919335852e-04 0.0000000000000000e+00  5.7348943626533873e-02 -9.4478867272091370e-04 0.0000000000000000e+00  6.3551726484842377e-02 9.7537332184717551e-04 0.0000000000000000e+00  1.3835477433761938e-02 9.7973500953713868e-04 0.0000000000000000e+00  7.9103685922283284e-02 -1.4772196574862851e-03 0.0000000000000000e+00  2.9377375849623150e-02 -1.4567903806887335e-03 0.0000000000000000e+00  6.3401818710620422e-02 -9.4846752899401551e-04 0.0000000000000000e+00  1.3674790770365935e-02 -9.5168480039194310e-04 0.0000000000000000e+00  7.9097762086894702e-02 1.5060410055312916e-03 0.0000000000000000e+00  2.9379947287457613e-02 1.5265152273485341e-03 0.0000000000000000e+00  3.5593919448481261e-02 1.5271848950389030e-03 0.0000000000000000e+00  4.1808097827282030e-02 1.5264200214638894e-03 0.0000000000000000e+00  4.8022484287774329e-02 1.5244736856082804e-03 0.0000000000000000e+00  5.4237076222277643e-02 1.5216064540246861e-03 0.0000000000000000e+00  6.0451874915057359e-02 1.5180748590738976e-03 0.0000000000000000e+00  8.5314159467844430e-02 1.5061877280190500e-03 0.0000000000000000e+00  9.7394928410605805e-02 8.9911717237327630e-04 0.0000000000000000e+00  1.7556405074769582e-03 9.4586936923371165e-04 0.0000000000000000e+00  9.7379920236971007e-02 -5.6635373313398811e-04 0.0000000000000000e+00  1.7035299058672979e-03 -8.7154760296600630e-04 0.0000000000000000e+00  1.3840296814041100e-02 3.8829837613479733e-04 0.0000000000000000e+00  8.1983198290869530e-02 2.4017335018687534e-04 0.0000000000000000e+00  3.2262245147061087e-02 2.6294179937864199e-04 0.0000000000000000e+00  4.4692371619038954e-02 2.6152220224919047e-04 0.0000000000000000e+00  5.7122630436052632e-02 2.5586098411032416e-04 0.0000000000000000e+00  7.3370421943932548e-02 -5.3177031394464328e-05 0.0000000000000000e+00  2.3648399947157908e-02 -3.8303013530467527e-05 0.0000000000000000e+00  1.9570834396752050e-02 -4.0786925128270491e-05 0.0000000000000000e+00  3.8477295139538042e-02 2.6289087184485250e-04 0.0000000000000000e+00  5.0907489065586599e-02 2.5909239948826109e-04 0.0000000000000000e+00  6.9292743560042142e-02 -5.0478555387230800e-05 0.0000000000000000e+00  6.3560716235737572e-02 3.8554688065155983e-04 0.0000000000000000e+00  8.8126174612745412e-02 1.9159276517358181e-04 0.0000000000000000e+00  2.8623315163207176e-03 7.2362593262351854e-04 0.0000000000000000e+00  2.9452264222063481e-02 -8.4335609811626519e-04 0.0000000000000000e+00  7.9176575100438962e-02 -8.6395741952081907e-04 0.0000000000000000e+00  6.0000742117937732e-02 9.1320514179155381e-04 0.0000000000000000e+00  8.4861754659220412e-02 9.0023694628128391e-04 0.0000000000000000e+00  4.1356220778115904e-02 9.2142345255467190e-04 0.0000000000000000e+00  5.3785778986720469e-02 9.1671343285894757e-04 0.0000000000000000e+00  4.7570939044031792e-02 9.1953778456178186e-04 0.0000000000000000e+00  3.5141625567736152e-02 9.2210816061196659e-04 0.0000000000000000e+00  7.5556924371221273e-02 -1.0182940429035035e-03 0.0000000000000000e+00  2.5831487944725135e-02 -1.0011443014660024e-03 0.0000000000000000e+00  6.6673160680114821e-02 -1.4691726876298013e-03 0.0000000000000000e+00  1.6943052155304245e-02 -1.4640879770506422e-03 0.0000000000000000e+00  1.1180797149905997e-02 1.0679404579225350e-03 0.0000000000000000e+00  1.4164781921660787e-02 -4.0376940355641989e-04 0.0000000000000000e+00  6.3889271547899432e-02 -4.0355763810887778e-04 0.0000000000000000e+00  7.0481886201757382e-02 4.9620770435414351e-04 0.0000000000000000e+00  2.0762273031364759e-02 5.0744692035554551e-04 0.0000000000000000e+00  3.2799120174577916e-02 -3.8431284553747927e-04 0.0000000000000000e+00  8.2521624392180373e-02 -4.0799317152888522e-04 0.0000000000000000e+00  4.5230155853873792e-02 -3.8595536336896437e-04 0.0000000000000000e+00  5.7660958507731272e-02 -3.9174958158686183e-04 0.0000000000000000e+00  9.5561413636083337e-02 -8.6179540526280069e-04 0.0000000000000000e+00  7.8766684606393800e-02 9.1450850050803613e-04 0.0000000000000000e+00  2.9047480860070068e-02 9.3485121549634993e-04 0.0000000000000000e+00  7.6701646683421986e-03 1.5245779193467316e-03 0.0000000000000000e+00  4.1058708560518291e-02 -4.3730910121220304e-04 0.0000000000000000e+00  5.3489644048137434e-02 -4.4194078090207639e-04 0.0000000000000000e+00  6.7051986265164176e-02 -9.5753709343714621e-04 0.0000000000000000e+00  1.7325203120134209e-02 -9.5155013884154710e-04 0.0000000000000000e+00  1.9091786676435317e-02 -9.3842578741881158e-04 0.0000000000000000e+00  6.8818200843929034e-02 -9.4733428397670574e-04 0.0000000000000000e+00  7.8903649500618789e-02 -3.3416395271915807e-04 0.0000000000000000e+00  2.9180992576534368e-02 -3.1372069614551447e-04 0.0000000000000000e+00  4.2178386485107661e-02 3.4788876594843872e-05 0.0000000000000000e+00  5.4608839167960513e-02 2.9819017610236718e-05 0.0000000000000000e+00  1.8319957147059019e-02 1.0026537859606000e-03 0.0000000000000000e+00  6.8037145228767859e-02 9.9465936443319516e-04 0.0000000000000000e+00  6.0374417755905199e-02 -2.5052542909024758e-04 0.0000000000000000e+00  4.7943767875365466e-02 -2.4409414300615576e-04 0.0000000000000000e+00  3.5512963918892457e-02 -2.4136435614704229e-04 0.0000000000000000e+00  8.5235727578371279e-02 -2.6759882224273947e-04 0.0000000000000000e+00  2.4024365737511655e-02 1.0060613967671208e-03 0.0000000000000000e+00  7.3742485610183497e-02 9.9086093525790463e-04 0.0000000000000000e+00  1.1095019277289189e-02 2.2523265308607587e-05 0.0000000000000000e+00  1.6868417858432658e-02 3.0560486172229086e-04 0.0000000000000000e+00  6.6588539122016205e-02 2.9958187668271198e-04 0.0000000000000000e+00  2.6352340568051722e-02 3.1113576325103381e-04 0.0000000000000000e+00  7.6073147324327794e-02 2.9330540595040106e-04 0.0000000000000000e+00  1.1795094285112346e-02 -9.5845324605942767e-04 0.0000000000000000e+00  6.1315979562513764e-02 -9.4715809609889872e-04 0.0000000000000000e+00  4.8884870610122526e-02 -9.4055196237679867e-04 0.0000000000000000e+00  3.6453224373499606e-02 -9.3749233076852699e-04 0.0000000000000000e+00  8.6175914864860953e-02 -9.6807486091715471e-04 0.0000000000000000e+00  5.1134151844943805e-02 -1.4601668880028613e-03 0.0000000000000000e+00  3.8702017046291143e-02 -1.4563389251578914e-03 0.0000000000000000e+00  2.6273036222951116e-02 1.5255418461253647e-03 0.0000000000000000e+00  7.5989815906490552e-02 1.5079709049490961e-03 0.0000000000000000e+00  5.1205954989314538e-02 -2.5092763032845015e-04 0.0000000000000000e+00  3.8775185151403734e-02 -2.4702957756460374e-04 0.0000000000000000e+00  8.8629616945920864e-02 -3.0443680754088572e-04 0.0000000000000000e+00  1.6951801639416827e-02 1.5204666210927370e-03 0.0000000000000000e+00  6.6666876894136098e-02 1.5141358931896514e-03 0.0000000000000000e+00  8.8416576181266235e-02 1.5123964264491655e-03 0.0000000000000000e+00  8.7449618644658195e-02 9.9988028711771467e-04 0.0000000000000000e+00  2.2473402677980599e-02 -4.0213038795597751e-04 0.0000000000000000e+00  7.2196919503076717e-02 -4.1561625255654886e-04 0.0000000000000000e+00  9.2883328292994699e-02 -4.2194256996149030e-04 0.0000000000000000e+00  4.4915269269115460e-02 1.5255681260919979e-03 0.0000000000000000e+00  4.3941482418800769e-02 1.0156731844770941e-03 0.0000000000000000e+00  3.2486912304956095e-02 1.5270281422306996e-03 0.0000000000000000e+00  3.1512449976110038e-02 1.0167501292007068e-03 0.0000000000000000e+00  5.7344452310523743e-02 1.5199023421769893e-03 0.0000000000000000e+00  5.6371057879855288e-02 1.0102292187264674e-03 0.0000000000000000e+00  8.2206080717334554e-02 1.5048880617362355e-03 0.0000000000000000e+00  8.1231922017953415e-02 9.9471989813183954e-04 0.0000000000000000e+00  5.1129757820438312e-02 1.5231311349976880e-03 0.0000000000000000e+00  5.0156202216007605e-02 1.0133676616731974e-03 0.0000000000000000e+00  3.8700987702008777e-02 1.5269529899944330e-03 0.0000000000000000e+00  3.7726897740848225e-02 1.0168869225714295e-03 0.0000000000000000e+00  1.4430776225353027e-03 -4.6559008568899132e-04 0.0000000000000000e+00  9.7728135585839565e-02 4.3630346569608518e-04 0.0000000000000000e+00  3.5176134150771851e-02 4.1345423357877541e-04 0.0000000000000000e+00  4.7606101672095953e-02 4.1085739527159290e-04 0.0000000000000000e+00  8.4897561581863415e-02 3.9038230562747102e-04 0.0000000000000000e+00  7.6302696813791371e-02 -3