<?xml version="1.0"?>
<VTKFile type="UnstructuredGrid"  version="0.1"  >
<UnstructuredGrid>
<Piece  NumberOfPoints="820" NumberOfCells="1464">
<Points>
<DataArray  type="Float64"  NumberOfComponents="3"  format="ascii">0 0.1 0  0 0 0  1 0 0  1 0.1 0  0.5 0 0  0.5 0.1 0  0.25 0 0  0.25 0.1 0  0.75 0.1 0  0.75 0 0  0.375 0.1 0  0.375 0 0  0.125 0 0  0.125 0.1 0  0.625 0 0  0.625 0.1 0  0.875 0.1 0  0.875 0 0  0.6875 0.1 0  0.6875 0 0  0.5625 0 0  0.5625 0.1 0  0.0625 0.1 0  0.0625 0 0  0.1875 0.1 0  0.1875 0 0  0.3125 0 0  0.3125 0.1 0  0.4375 0.1 0  0.4375 0 0  0.8125 0 0  0.8125 0.1 0  0.9375 0.1 0  0.9375 0 0  0.84375 0.05000000000000001 0  0.78125 0.05 0  0.34375 0.05000000000000001 0  0.28125 0.05 0  0.15625 0.05 0  0.21875 0.05000000000000001 0  0 0.05 0  0.09375 0.05000000000000001 0  0.40625 0.05 0  0.46875 0.05000000000000001 0  0.53125 0.05 0  0.59375 0.05000000000000001 0  0.65625 0.05 0  0.71875 0.05000000000000001 0  0.90625 0.05 0  1 0.05 0  0.046875 0.04453125000000001 0  0.953125 0.05546875 0  0.96875 0 0  0.03125 0.1 0  0.03125 0 0  0.96875 0.1 0  1 0.07500000000000001 0  0.875 0.06523437500000001 0  0.8715625 0.03261718750000001 0  0.84375 0 0  0.90625 0.1 0  0.625 0.06523437500000001 0  0.6215625 0.03261718750000001 0  0.59375 0 0  0.6875 0.034765625 0  0.6840625 0.0673828125 0  0.65625 0.1 0  0.71875 0 0  0.5625 0.06523437500000001 0  0.5590625 0.03261718750000001 0  0.53125 0 0  0.65625 0 0  0.59375 0.1 0  0.5 0.06523437500000001 0  0.4965625 0.03261718750000001 0  0.46875 0 0  0.53125 0.1 0  0.4375 0.06523437500000001 0  0.4340625 0.03261718750000001 0  0.40625 0 0  0.46875 0.1 0  0.375 0.06523437500000001 0  0.3715625 0.03261718750000001 0  0.34375 0 0  0.40625 0.1 0  0.09375 0 0  0.09375 0.1 0  0.125 0.06523437500000001 0  0.1215625 0.03261718750000001 0  0.1875 0.034765625 0  0.1840625 0.0673828125 0  0.15625 0.1 0  0.21875 0 0  0.15625 0 0  0.28125 0.1 0  0.3125 0.06523437500000001 0  0.3090625 0.03261718750000001 0  0.28125 0 0  0.25 0.034765625 0  0.2534375 0.0673828125 0  0.21875 0.1 0  0.34375 0.1 0  0.78125 0.1 0  0.8125 0.06523437500000001 0  0.8090625 0.03261718750000001 0  0.78125 0 0  0.75 0.034765625 0  0.7534375 0.0673828125 0  0.71875 0.1 0  0.90625 0 0  0.84375 0.1 0  0.9740776699029127 0.03143583131067961 0  0.921875 0.075 0  0 0.025 0  0.02592233009708738 0.06856416868932039 0  0.0725 0.028515625 0  0.921875 0.025 0  0.078125 0.07500000000000001 0  0.9484670937186905 0.0242372460741816 0  0.05153290628130947 0.07576275392581842 0  0.8963594872172794 0.02643561701079966 0  0.02229817708333334 0.0375 0  0.9777018229166666 0.06250000000000001 0  0.72590087890625 0.025 0  0.8345789124085022 0.025 0  0.22590087890625 0.025 0  0.3345789124085023 0.025 0  0.15996337890625 0.075 0  0.39909912109375 0.075 0  0.4595789124085023 0.025 0  0.52409912109375 0.075 0  0.5845789124085022 0.025 0  0.65996337890625 0.075 0  0.27753662109375 0.075 0  0.77753662109375 0.075 0  0 0.07500000000000001 0  1 0.025 0  0.85090087890625 0.07500000000000001 0  0.77409912109375 0.025 0  0.35090087890625 0.07500000000000001 0  0.27409912109375 0.025 0  0.3970789124085022 0.025 0  0.47590087890625 0.07500000000000001 0  0.5220789124085022 0.025 0  0.60090087890625 0.07500000000000001 0  0.66340087890625 0.025 0  0.16340087890625 0.025 0  0.2095789124085023 0.07500000000000001 0  0.7095789124085022 0.07500000000000001 0  0.0974991439537346 0.02496950333675565 0  0.1029665898617512 0.07685681883640554 0  0.8970334101382489 0.07685681883640554 0  0.7331321502083639 0.0805418246751822 0  0.2331321502083639 0.08054182467518221 0  0.04967773437499999 0.02050781250000001 0  0.9302821601941748 0.04763728762135922 0  0.9453125 0.07773437499999999 0  0.06981448887637284 0.05242311804773303 0  0.703125 0.0173828125 0  0.203125 0.0173828125 0  0.828125 0.08261718750000001 0  0.328125 0.08261718750000001 0  0.4213608787615672 0.08215505604972331 0  0.453125 0.08261718750000001 0  0.5463608787615671 0.08215505604972331 0  0.578125 0.08261718750000001 0  0.6405370048634059 0.0181271643224308 0  0.1405370048634059 0.0181271643224308 0  0.796875 0.1 0  0.296875 0.1 0  0.6389903131525874 0.08261718750000001 0  0.1389903131525873 0.08261718750000001 0  0.796875 0 0  0.296875 0 0  0.359375 0 0  0.421875 0 0  0.484375 0 0  0.546875 0 0  0.609375 0 0  0.859375 0 0  0.984375 0 0  0.015625 0 0  0.9808265015870887 0.08306437698386088 0  0.015625 0.1 0  0.140615310157384 0.03789815460447876 0  0.8258710430305984 0.04237660226422156 0  0.3258710430305984 0.04237660226422154 0  0.4508710430305984 0.04237660226422154 0  0.5758710430305984 0.04237660226422156 0  0.73925254007477 0.05238802290978471 0  0.23925254007477 0.05238802290978471 0  0.19824745992523 0.05238802290978471 0  0.3883710430305984 0.04237660226422155 0  0.5133710430305984 0.04237660226422155 0  0.69824745992523 0.05238802290978471 0  0.6406153101573839 0.03789815460447876 0  0.8875652355519991 0.04398459561477483 0  0.03011990291140283 0.01954869700666445 0  0.2976228417042103 0.07944206017604956 0  0.7976228417042103 0.07944206017604956 0  0.6048261925064409 0.0202852140350185 0  0.8548261925064409 0.0202852140350185 0  0.4173261925064409 0.02028521403501849 0  0.5423261925064409 0.02028521403501849 0  0.479826192506441 0.02028521403501848 0  0.354826192506441 0.02028521403501848 0  0.7612196085333947 0.08469269433495656 0  0.2612196085333947 0.08469269433495656 0  0.671875 0.1 0  0.171875 0.1 0  0.1138156987561534 0.01531102667280419 0  0.1439032206506398 0.06434174268079966 0  0.6439032206506399 0.06434174268079966 0  0.7102169938849521 0.03403655887996306 0  0.2102169938849521 0.03403655887996306 0  0.331272668838501 0.06407394409179688 0  0.8312726688385009 0.06407394409179688 0  0.456272668838501 0.06407394409179688 0  0.5812726688385009 0.06407394409179688 0  0.9626931005513372 0.08290734481438196 0  0.7935362330470901 0.01983307912641665 0  0.2935362330470901 0.01983307912641665 0  0.078125 0 0  0.4143262322415116 0.06583278773374907 0  0.5393262322415115 0.06583278773374907 0  0.6756954193768612 0.08284197013692297 0  0.1756954193768612 0.08284197013692297 0  0.1934564775596677 0.08246105735569852 0  0.6934564775596677 0.0824610573556985 0  0.7948904737904949 0.06168801049385652 0  0.2948904737904949 0.06168801049385652 0  0.42558837890625 0.05 0  0.55058837890625 0.05 0  0.185643310546875 0.0173828125 0  0.685643310546875 0.0173828125 0  0.6085613945093048 0.05928612183988766 0  0.4835613945093048 0.05928612183988766 0  0.3585613945093048 0.05928612183988766 0  0.8585613945093048 0.05928612183988766 0  0.2430157823768409 0.0173828125 0  0.743015782376841 0.0173828125 0  0.11308837890625 0.05 0  0.1710613945093048 0.04071387816011236 0  0.6710613945093048 0.04071387816011236 0  0.2664386054906952 0.04071387816011236 0  0.7664386054906952 0.04071387816011236 0  0.1200872144236349 0.08261718750000001 0  0.618015782376841 0.08261718750000001 0  0.4930157823768409 0.08261718750000001 0  0.3680157823768409 0.08261718750000001 0  0.868015782376841 0.08261718750000001 0  0.515625 0.1 0  0.390625 0.1 0  0.265625 0 0  0.765625 0 0  0.516365031953596 0.05946768293606444 0  0.3913650319535959 0.05946768293606444 0  0.8926135952226929 0.06033018746614476 0  0.171875 0 0  0.671875 0 0  0.890625 0 0  0.8808652108632187 0.0171078614816925 0  0.2274441083295474 0.06456313374723947 0  0.7274441083295474 0.06456313374723946 0  0.9350285939903868 0.06406852472525566 0  0.453125 0 0  0.4433265752246126 0.01710378970181546 0  0.328125 0 0  0.3183265752246126 0.01710378970181546 0  0.578125 0 0  0.5683265752246126 0.01710378970181545 0  0.828125 0 0  0.8183265752246126 0.01710378970181545 0  0.515625 0 0  0.5058265752246126 0.01710378970181545 0  0.390625 0 0  0.3808265752246126 0.01710378970181545 0  0.01564771141956889 0.08260299286276945 0  0.9843522885804311 0.01739700713723054 0  0.3551736619148977 0.03733645281383641 0  0.4801736619148977 0.03733645281383641 0  0.8551736619148977 0.03733645281383642 0  0.7687346279121444 0.06091681090943113 0  0.2687346279121444 0.06091681090943113 0  0.6687653720878556 0.06091681090943113 0  0.1687653720878556 0.06091681090943113 0  0.6051736619148977 0.03733645281383642 0  0.2924478939734164 0.03697522410746614 0  0.7924478939734163 0.03697522410746614 0  0.8719142286486647 0.04906985056606887 0  0.6274213820068905 0.04848945596065109 0  0.4983341418505795 0.04892020701904073 0  0.3733341418505795 0.04892020701904073 0  0.3108341418505795 0.04892020701904073 0  0.8108341418505794 0.04892020701904073 0  0.6242024164762008 0.01640567476785111 0  0.3848561971730207 0.08410836408489761 0  0.5098561971730207 0.08410836408489761 0  0.2598561971730207 0.01589163591510238 0  0.7598561971730207 0.01589163591510238 0  0.890625 0.1 0  0.9582054159658413 0.03874795528975266 0  0.03565822065430611 0.08308352918541601 0  0.9643417793456939 0.016916470814584 0  0 0.0625 0  0.0168287001921521 0.05388159890776699 0  0.0417945840341587 0.06125204471024735 0  0.9831712998078479 0.04611840109223304 0  0.5622607296296599 0.08116332765030569 0  0.4372607296296599 0.08116332765030566 0  0.046875 0.1 0  0.953125 0 0  0.415919189453125 0.03668247284720479 0  0.540919189453125 0.03668247284720479 0  0.0859375 0.01393925506164327 0  0.109375 0.1 0  0.1338555271916189 0.05216484236021472 0  0.953125 0.1 0  0.140625 0 0  0.640625 0 0  0.546875 0.1 0  0.421875 0.1 0  0.203125 0 0  0.703125 0 0  0.046875 0 0  0.234375 0.1 0  0.734375 0.1 0  0.078125 0.1 0  0.921875 0 0  0.921875 0.1 0  0.828125 0.1 0  0.328125 0.1 0  0.453125 0.1 0  0.578125 0.1 0  0.640625 0.1 0  0.140625 0.1 0  0.984375 0.1 0  0.765625 0.1 0  0.265625 0.1 0  0.109375 0 0  0.203125 0.1 0  0.703125 0.1 0  0.234375 0 0  0.734375 0 0  0.609375 0.1 0  0.484375 0.1 0  0.359375 0.1 0  0.859375 0.1 0  0.03162846341645094 0.04971906156616034 0  0.9677597279973049 0.05078312969016881 0  0.8125319459969864 0.08431483734279674 0  0.3125319459969864 0.08431483734279674 0  0.01533347852251798 0.02378565849770013
[...]
<PointData  Vectors="damage"> 
<DataArray  type="Float64"  Name="damage"  NumberOfComponents="3" format="ascii">0.0000000000000000e+00 0.0000000000000000e+00 0.0000000000000000e+00  0.0000000000000000e+00 0.0000000000000000e+00 0.0000000000000000e+00  5.6661010885626577e-02 0.0000000000000000e+00 0.0000000000000000e+00  5.6661010885626577e-02 0.0000000000000000e+00 0.0000000000000000e+00  2.8329206558832663e-02 8.7076174297922400e-04 0.0000000000000000e+00  2.8331534068042882e-02 -8.3398668371288741e-04 0.0000000000000000e+00  1.4125474606460615e-02 8.7135747700302704e-04 0.0000000000000000e+00  1.4122789298399024e-02 -8.3334640652845294e-04 0.0000000000000000e+00  4.2538397876975616e-02 -8.4242364007775341e-04 0.0000000000000000e+00  4.2534820353335535e-02 8.6228248118898831e-04 0.0000000000000000e+00  2.1227399591307993e-02 -8.3211022368231014e-04 0.0000000000000000e+00  2.1227109583529833e-02 8.7263899272694082e-04 0.0000000000000000e+00  7.0243910434290603e-03 8.6977393020477975e-04 0.0000000000000000e+00  7.0178882406834401e-03 -8.4288129919489192e-04 0.0000000000000000e+00  3.5431775633357726e-02 8.6692520179739243e-04 0.0000000000000000e+00  3.5435197148833385e-02 -8.3782373636678278e-04 0.0000000000000000e+00  4.9641065339744161e-02 -8.5074593810995352e-04 0.0000000000000000e+00  4.9638059905935672e-02 8.6215724313521488e-04 0.0000000000000000e+00  3.8986851547955011e-02 -8.4010833589277735e-04 0.0000000000000000e+00  3.8983233073030386e-02 8.6463736843040340e-04 0.0000000000000000e+00  3.1880431914925067e-02 8.6901471100260964e-04 0.0000000000000000e+00  3.1883424082537908e-02 -8.3573359195252136e-04 0.0000000000000000e+00  3.5114722052699138e-03 -8.4187097710608386e-04 0.0000000000000000e+00  3.5181230006329960e-03 8.6069467066763347e-04 0.0000000000000000e+00  1.0570043977803508e-02 -8.3566552436301240e-04 0.0000000000000000e+00  1.0574576639761907e-02 8.6930426457514770e-04 0.0000000000000000e+00  1.7676238103762464e-02 8.7247308407132262e-04 0.0000000000000000e+00  1.7675155023105918e-02 -8.3227277861712455e-04 0.0000000000000000e+00  2.4779523808279753e-02 -8.3272921189798835e-04 0.0000000000000000e+00  2.4778099066704466e-02 8.7201935514546070e-04 0.0000000000000000e+00  4.6086793949204098e-02 8.6016325971499023e-04 0.0000000000000000e+00  4.6090090249617362e-02 -8.4477692737624838e-04 0.0000000000000000e+00  5.3146857771442985e-02 -8.4871552492850626e-04 0.0000000000000000e+00  5.3143252824153463e-02 8.5488240457638287e-04 0.0000000000000000e+00  4.7863878420013738e-02 6.6204397347196177e-06 0.0000000000000000e+00  4.4312310798209409e-02 8.7725018082013999e-06 0.0000000000000000e+00  1.9451475566225288e-02 2.0373353352917946e-05 0.0000000000000000e+00  1.5899919282863825e-02 1.9780530165077757e-05 0.0000000000000000e+00  8.7968113177735088e-03 1.5483870848583272e-05 0.0000000000000000e+00  1.2348424842511883e-02 1.8173753868347302e-05 0.0000000000000000e+00  0.0000000000000000e+00 0.0000000000000000e+00 0.0000000000000000e+00  5.2339819473363183e-03 1.1688174800488443e-05 0.0000000000000000e+00  2.3003037667526365e-02 2.0111193319951916e-05 0.0000000000000000e+00  2.6554591306856105e-02 1.9141483282549110e-05 0.0000000000000000e+00  3.0106151721998015e-02 1.7605740185896389e-05 0.0000000000000000e+00  3.3657706957989621e-02 1.5655421255795636e-05 0.0000000000000000e+00  3.7209265417433995e-02 1.3434911863159219e-05 0.0000000000000000e+00  4.0760821821118870e-02 1.1091313229569070e-05 0.0000000000000000e+00  5.1427183553051870e-02 4.6839220425439581e-06 0.0000000000000000e+00  5.6661010885626577e-02 0.0000000000000000e+00 0.0000000000000000e+00  2.5353724629404695e-03 9.4530271574788039e-05 0.0000000000000000e+00  5.4129153098296065e-02 -8.3315744156877881e-05 0.0000000000000000e+00  5.4825644909451098e-02 7.3985250151690780e-04 0.0000000000000000e+00  1.8245741480191536e-03 -7.2221755748976501e-04 0.0000000000000000e+00  1.8429005264010824e-03 7.3591530823365200e-04 0.0000000000000000e+00  5.4829453085823043e-02 -7.2270625365302896e-04 0.0000000000000000e+00  5.6661010885626577e-02 0.0000000000000000e+00 0.0000000000000000e+00  4.9641345253140567e-02 -2.5645572467018703e-04 0.0000000000000000e+00  4.9444770912935178e-02 3.0448002530212626e-04 0.0000000000000000e+00  4.7863031576471676e-02 8.6003318321434545e-04 0.0000000000000000e+00  5.1407717297663101e-02 -8.5719080493837038e-04 0.0000000000000000e+00  3.5433999009886669e-02 -2.4514023397912506e-04 0.0000000000000000e+00  3.5237567296589133e-02 3.1102226073649315e-04 0.0000000000000000e+00  3.3656090662565551e-02 8.6800322035095081e-04 0.0000000000000000e+00  3.8984501337057158e-02 2.7197591606200011e-04 0.0000000000000000e+00  3.8790327790578082e-02 -2.8393504065459750e-04 0.0000000000000000e+00  3.7211039368565402e-02 -8.3895073190068533e-04 0.0000000000000000e+00  4.0759006624813077e-02 8.6346059241313279e-04 0.0000000000000000e+00  3.1882376310283615e-02 -2.4303705499068370e-04 0.0000000000000000e+00  3.1686086279456099e-02 3.1310873452401142e-04 0.0000000000000000e+00  3.0104807369942480e-02 8.6994005809439055e-04 0.0000000000000000e+00  3.7207489143007463e-02 8.6579687623002631e-04 0.0000000000000000e+00  3.3659325572748588e-02 -8.3674366727841550e-04 0.0000000000000000e+00  2.8330716337505342e-02 -2.4127793125750812e-04 0.0000000000000000e+00  2.8134647910685942e-02 3.1484490377586800e-04 0.0000000000000000e+00  2.6553640695240768e-02 8.7145738335676578e-04 0.0000000000000000e+00  3.0107491319799128e-02 -8.3480696531578185e-04 0.0000000000000000e+00  2.4779022431886923e-02 -2.4000676743655738e-04 0.0000000000000000e+00  2.4583247389017956e-02 3.1608286328347549e-04 0.0000000000000000e+00  2.3002594360081875e-02 8.7241739929612774e-04 0.0000000000000000e+00  2.6555544946212820e-02 -8.3328474993855884e-04 0.0000000000000000e+00  2.1227289842563366e-02 -2.3937575071583095e-04 0.0000000000000000e+00  2.1031891524888928e-02 3.1667551404004652e-04 0.0000000000000000e+00  1.9451663452437890e-02 8.7265759600584861e-04 0.0000000000000000e+00  2.3003472915004267e-02 -8.3232894017036725e-04 0.0000000000000000e+00  5.2582014123805729e-03 8.7275900444495013e-04 0.0000000000000000e+00  5.2510173677994335e-03 -8.4990267154504498e-04 0.0000000000000000e+00  7.0188257038839453e-03 -2.4850176067394911e-04 0.0000000000000000e+00  6.8257777247781211e-03 3.1269745890088817e-04 0.0000000000000000e+00  1.0573406634135564e-02 2.7669112451958260e-04 0.0000000000000000e+00  1.0376547604712636e-02 -2.7963391425842179e-04 0.0000000000000000e+00  8.7934317819895243e-03 -8.3802490745444214e-04 0.0000000000000000e+00  1.2350085511063489e-02 8.7040788157382101e-04 0.0000000000000000e+00  8.7989429059237099e-03 8.6859963237228676e-04 0.0000000000000000e+00  1.5898986661538436e-02 -8.3268485630880532e-04 0.0000000000000000e+00  1.7675523866125070e-02 -2.3952820465392759e-04 0.0000000000000000e+00  1.7480574103069878e-02 3.1647323287892833e-04 0.0000000000000000e+00  1.5900850870034598e-02 8.7204779925326202e-04 0.0000000000000000e+00  1.4124565134901701e-02 2.7879567104782042e-04 0.0000000000000000e+00  1.4319025476186562e-02 -2.7713656853620963e-04 0.0000000000000000e+00  1.2346487400189175e-02 -8.3428467745747328e-04 0.0000000000000000e+00  1.9451293565051264e-02 -8.3208075703035042e-04 0.0000000000000000e+00  4.4314179929702567e-02 -8.4354753953121749e-04 0.0000000000000000e+00  4.6088527044352200e-02 -2.5207895228758341e-04 0.0000000000000000e+00  4.5892151084605273e-02 3.0415118907262839e-04 0.0000000000000000e+00  4.4310712082406924e-02 8.6112782006685432e-04 0.0000000000000000e+00  4.2536054423858487e-02 2.6961393634565540e-04 0.0000000000000000e+00  4.2732538540309839e-02 -2.8652187522642468e-04 0.0000000000000000e+00  4.0762634582202410e-02 -8.4127384093882272e-04 0.0000000000000000e+00  5.1405115947064511e-02 8.6684581874527176e-04 0.0000000000000000e+00  4.7866146099561621e-02 -8.4667090027306345e-04 0.0000000000000000e+00  5.5298731888905897e-02 2.0922198540922315e-04 0.0000000000000000e+00  5.2308246278462561e-02 -4.3306121711491984e-04 0.0000000000000000e+00  0.0000000000000000e+00 0.0000000000000000e+00 0.0000000000000000e+00  1.3677881586564020e-03 -2.1135974043151815e-04 0.0000000000000000e+00  4.0286415081953403e-03 3.8475343751075928e-04 0.0000000000000000e+00  5.2307854946036798e-02 4.4183566834362763e-04 0.0000000000000000e+00  4.3501806857858989e-03 -4.2601976178089588e-04 0.0000000000000000e+00  5.3825244214442444e-02 4.3306289576110283e-04 0.0000000000000000e+00  2.8316297247884619e-03 -4.2040752244830454e-04 0.0000000000000000e+00  5.0854521401121767e-02 4.1390919323011454e-04 0.0000000000000000e+00  1.1509230954308673e-03 1.2859657587523395e-04 0.0000000000000000e+00  5.5514241358049693e-02 -1.2528612944088299e-04 0.0000000000000000e+00  4.1166275806795737e-02 4.3700222506881919e-04 0.0000000000000000e+00  4.7341957908342773e-02 4.3354463168896422e-04 0.0000000000000000e+00  1.2755572909509428e-02 4.4453905605333692e-04 0.0000000000000000e+00  1.8930483698020598e-02 4.4650829734506738e-04 0.0000000000000000e+00  9.0065275201562447e-03 -4.1121758910937160e-04 0.0000000000000000e+00  2.2596861534023047e-02 -4.0602039938579434e-04 0.0000000000000000e+00  2.6033012998798451e-02 4.4549724683332640e-04 0.0000000000000000e+00  2.9700442074627468e-02 -4.0838948253443954e-04 0.0000000000000000e+00  3.3135778426901262e-02 4.4214288878187863e-04 0.0000000000000000e+00  3.7421156814152062e-02 -4.1289221059852185e-04 0.0000000000000000e+00  1.5688404707995440e-02 -4.0649531110004979e-04 0.0000000000000000e+00  4.4102217798855703e-02 -4.1723724699572090e-04 0.0000000000000000e+00  0.0000000000000000e+00 0.0000000000000000e+00 0.0000000000000000e+00  5.6661010885626570e-02 0.0000000000000000e+00 0.0000000000000000e+00  4.8270927421805526e-02 -4.2098343300823787e-04 0.0000000000000000e+00  4.3905155929685191e-02 4.3518525087514725e-04 0.0000000000000000e+00  1.9857761119158667e-02 -4.0582236101050168e-04 0.0000000000000000e+00  1.5494094186475746e-02 4.4580324279518515e-04 0.0000000000000000e+00  2.2481719146127274e-02 4.4636829370320585e-04 0.0000000000000000e+00  2.6961431297183258e-02 -4.0720772019322096e-04 0.0000000000000000e+00  2.9584366679871906e-02 4.4403784469826217e-04 0.0000000000000000e+00  3.4064866039515605e-02 -4.1078014611120649e-04 0.0000000000000000e+00  3.7614731168396524e-02 4.3935448486575300e-04 0.0000000000000000e+00  9.2045684947128000e-03 4.4247037977970718e-04 0.0000000000000000e+00  1.1826262973351922e-02 -4.0833607360428464e-04 0.0000000000000000e+00  4.0240573964097366e-02 -4.1474628028577871e-04 0.0000000000000000e+00  5.4584325310131441e-03 4.4711586736203809e-04 0.0000000000000000e+00  5.7662903331269274e-03 -4.5354935075809420e-04 0.0000000000000000e+00  5.0892704735873845e-02 -4.6074451579625853e-04 0.0000000000000000e+00  4.1579180354873152e-02 -5.1009678407027293e-04 0.0000000000000000e+00  1.3164639744376299e-02 -5.0202459947049094e-04 0.0000000000000000e+00  2.7441477634918281e-03 4.9327026185724202e-04 0.0000000000000000e+00  5.2811341597403229e-02 4.4915148342287943e-05 0.0000000000000000e+00  5.3639092717000278e-02 -4.6487577872965586e-04 0.0000000000000000e+00  3.8563709482439521e-03 -3.2660623611895591e-05 0.0000000000000000e+00  3.9871759123463066e-02 5.6771827729868265e-04 0.0000000000000000e+00  1.1461773230605994e-02 5.7356925609330770e-04 0.0000000000000000e+00  4.6977130031343364e-02 -5.4920890610323718e-04 0.0000000000000000e+00  1.8563340802594367e-02 -5.3576811011740223e-04 0.0000000000000000e+00  2.3862065229535788e-02 -5.2825238136613951e-04 0.0000000000000000e+00  2.5667237449843242e-02 -5.3662240465238359e-04 0.0000000000000000e+00  3.0965725386832527e-02 -5.3101038811044499e-04 0.0000000000000000e+00  3.2770824929447891e-02 -5.3987924155476127e-04 0.0000000000000000e+00  3.6315272277052738e-02 5.5735618391271325e-04 0.0000000000000000e+00  7.9059871050068155e-03 5.5984857687838561e-04 0.0000000000000000e+00  4.5202106241304718e-02 -8.4412551856356973e-04 0.0000000000000000e+00  1.6787071914070344e-02 -8.3245164610779140e-04 0.0000000000000000e+00  3.6229610691783071e-02 -5.4198144513939721e-04 0.0000000000000000e+00  7.8141661544948015e-03 -5.4381988593823073e-04 0.0000000000000000e+00  4.5198721192511213e-02 8.6059486030361319e-04 0.0000000000000000e+00  1.6788541307118619e-02 8.7229441562778883e-04 0.0000000000000000e+00  2.0339382541989269e-02 8.7267708287943138e-04 0.0000000000000000e+00  2.3890341615589703e-02 8.7224001226513643e-04 0.0000000000000000e+00  2.7441419593013862e-02 8.7112782034763853e-04 0.0000000000000000e+00  3.0992614984158593e-02 8.6948940229986560e-04 0.0000000000000000e+00  3.4543928522889872e-02 8.6747134804227293e-04 0.0000000000000000e+00  4.8750948267339667e-02 8.6067870172518667e-04 0.0000000000000000e+00  5.5654244806060446e-02 5.1378124135616654e-04 0.0000000000000000e+00  1.0032231471296909e-03 5.4049678241926394e-04 0.0000000000000000e+00  5.5645668706840574e-02 -3.2363070464798790e-04 0.0000000000000000e+00  9.7344566049559504e-04 -4.9802720169485890e-04 0.0000000000000000e+00  7.9087410365949028e-03 2.2188478636276282e-04 0.0000000000000000e+00  4.6847541880496842e-02 1.3724191439252038e-04 0.0000000000000000e+00  1.8435568655463457e-02 1.5025245678785480e-04 0.0000000000000000e+00  2.5538498068022230e-02 1.4944125842816761e-04 0.0000000000000000e+00  3.2641503106315743e-02 1.4620627663451913e-04 0.0000000000000000e+00  4.1925955396532870e-02 -3.0386875082519373e-05 0.0000000000000000e+00  1.3513371398375927e-02 -2.1887436303081306e-05 0.0000000000000000e+00  1.1183333941001156e-02 -2.3306814358977012e-05 0.0000000000000000e+00  2.1987025794021706e-02 1.5022335533997319e-04 0.0000000000000000e+00  2.9089993751763726e-02 1.4805279970762843e-04 0.0000000000000000e+00  3.9595853462881185e-02 -2.8844888792668553e-05 0.0000000000000000e+00  3.6320409277564289e-02 2.2031250322950138e-04 0.0000000000000000e+00  5.0357814064425931e-02 1.0948158009921606e-04 0.0000000000000000e+00  1.6356180093261240e-03 4.1350053292772590e-04 0.0000000000000000e+00  1.6829865269750530e-02 -4.8191777035209451e-04 0.0000000000000000e+00  4.5243757200250825e-02 -4.9368995401187585e-04 0.0000000000000000e+00  3.4286138353107232e-02 5.2183150959521981e-04 0.0000000000000000e+00  4.8492431233840200e-02 5.1442111216075132e-04 0.0000000000000000e+00  2.3632126158923340e-02 5.2652768717415508e-04 0.0000000000000000e+00  3.0734730849554498e-02 5.2383624734801822e-04 0.0000000000000000e+00  2.7183393739446692e-02 5.2545016260678807e-04 0.0000000000000000e+00  2.0080928895849209e-02 5.2691894892118330e-04 0.0000000000000000e+00  4.3175385354983581e-02 -5.8188231023054658e-04 0.0000000000000000e+00  1.4760850254128618e-02 -5.7208245798052320e-04 0.0000000000000000e+00  3.8098948960065583e-02 -8.3952725007413421e-04 0.0000000000000000e+00  9.6817440887452585e-03 -8.3662170117176557e-04 0.0000000000000000e+00  6.3890269428034229e-03 6.1025169024146405e-04 0.0000000000000000e+00  8.0941610980918618e-03 -2.3072537346078911e-04 0.0000000000000000e+00  3.6508155170228200e-02 -2.3060436463360974e-04 0.0000000000000000e+00  4.0275363543861332e-02 2.8354725963097334e-04 0.0000000000000000e+00  1.1864156017922706e-02 2.8996966877463208e-04 0.0000000000000000e+00  1.8742354385473066e-02 -2.1960734030707050e-04 0.0000000000000000e+00  4.7155213938388757e-02 -2.3313895515934293e-04 0.0000000000000000e+00  2.5845803345070705e-02 -2.2054592192506287e-04 0.0000000000000000e+00  3.2949119147274976e-02 -2.2385690376387250e-04 0.0000000000000000e+00  5.4606522077761926e-02 -4.9245451729301639e-04 0.0000000000000000e+00  4.5009534060796420e-02 5.2257628600461145e-04 0.0000000000000000e+00  1.6598560491468590e-02 5.3420069456939980e-04 0.0000000000000000e+00  4.3829512390526851e-03 8.7118738248385366e-04 0.0000000000000000e+00  2.3462119177438991e-02 -2.4989091497834267e-04 0.0000000000000000e+00  3.0565510884649909e-02 -2.5253758908685319e-04 0.0000000000000000e+00  3.8315420722950924e-02 -5.4716405339261557e-04 0.0000000000000000e+00  9.9001160686480964e-03 -5.4374293648085342e-04 0.0000000000000000e+00  1.0909592386534443e-02 -5.3624330709642993e-04 0.0000000000000000e+00  3.9324686196530852e-02 -5.4133387655808162e-04 0.0000000000000000e+00  4.5087799714639269e-02 -1.9095083012521383e-04 0.0000000000000000e+00  1.6674852900876756e-02 -1.7926896922595173e-04 0.0000000000000000e+00  2.4101935134347205e-02 1.9879358054255218e-05 0.0000000000000000e+00  3.1205050953120237e-02 1.7039438634469635e-05 0.0000000000000000e+00  1.0468546941176571e-02 5.7294502054894411e-04 0.0000000000000000e+00  3.8878368702153027e-02 5.6837677967614168e-04 0.0000000000000000e+00  3.4499667289088640e-02 -1.4315738805152701e-04 0.0000000000000000e+00  2.7396438785923096e-02 -1.3948236743203352e-04 0.0000000000000000e+00  2.0293122239367089e-02 -1.3792248922682272e-04 0.0000000000000000e+00  4.8706130044783552e-02 -1.5291361271011633e-04 0.0000000000000000e+00  1.3728208992863790e-02 5.7489222672411086e-04 0.0000000000000000e+00  4.2138563205819095e-02 5.6620624871883435e-04 0.0000000000000000e+00  6.3400110155938114e-03 1.2870437319219749e-05 0.0000000000000000e+00  9.6390959191043641e-03 1.7463134955562312e-04 0.0000000000000000e+00  3.8050593784009219e-02 1.7118964381872723e-04 0.0000000000000000e+00  1.5058480324600960e-02 1.7779186471492584e-04 0.0000000000000000e+00  4.3470369899615856e-02 1.6760308911454089e-04 0.0000000000000000e+00  6.7400538772070372e-03 -5.4768756917679797e-04 0.0000000000000000e+00  3.5037702607150688e-02 -5.4123319777076018e-04 0.0000000000000000e+00  2.7934211777212819e-02 -5.3745826421525980e-04 0.0000000000000000e+00  2.0830413927714030e-02 -5.3570990329624151e-04 0.0000000000000000e+00  4.9243379922777643e-02 -5.5318563480977591e-04 0.0000000000000000e+00  2.9219515339967850e-02 -8.3438107885872883e-04 0.0000000000000000e+00  2.2115438312166343e-02 -8.3219367151873402e-04 0.0000000000000000e+00  1.5013163555972060e-02 8.7173819778597005e-04 0.0000000000000000e+00  4.3422751946566002e-02 8.6169765997094142e-04 0.0000000000000000e+00  2.9260545708179694e-02 -1.4338721733049309e-04 0.0000000000000000e+00  2.2157248657944956e-02 -1.4115975860828678e-04 0.0000000000000000e+00  5.0645495397669028e-02 -1.7396389002333681e-04 0.0000000000000000e+00  9.6867437939524657e-03 8.6883806919587627e-04 0.0000000000000000e+00  3.8095358225220574e-02 8.6522051039412062e-04 0.0000000000000000e+00  5.0523757817866388e-02 8.6422652939955778e-04 0.0000000000000000e+00  4.9971210654090353e-02 5.7136016406728670e-04 0.0000000000000000e+00  1.2841944387417460e-02 -2.2978879311766031e-04 0.0000000000000000e+00  4.1255382573186672e-02 -2.3749500146085360e-04 0.0000000000000000e+00  5.3076187595996950e-02 -2.4111003997797490e-04 0.0000000000000000e+00  2.5665868153780226e-02 8.7175321490977060e-04 0.0000000000000000e+00  2.5109418525028970e-02 5.8038467684411134e-04 0.0000000000000000e+00  1.8563949888546313e-02 8.7258750984617079e-04 0.0000000000000000e+00  1.8007114272062856e-02 5.8100007382903200e-04 0.0000000000000000e+00  3.2768258463156369e-02 8.6851562410118375e-04 0.0000000000000000e+00  3.2212033074202964e-02 5.7727383927231430e-04 0.0000000000000000e+00  4.6974903267048285e-02 8.5993603527786250e-04 0.0000000000000000e+00  4.6418241153116206e-02 5.6841137036106810e-04 0.0000000000000000e+00  2.9217004468821847e-02 8.7036064857015801e-04 0.0000000000000000e+00  2.8660686980575723e-02 5.7906723524188040e-04 0.0000000000000000e+00  2.2114850115433553e-02 8.7254456571116254e-04 0.0000000000000000e+00  2.1558227280484673e-02 5.8107824146944715e-04 0.0000000000000000e+00  8.2461578430588500e-04 -2.6605147753656553e-04 0.0000000000000000e+00  5.5844648906194026e-02 2.4931626611204995e-04 0.0000000000000000e+00  2.0100648086155311e-02 2.3625956204507284e-04 0.0000000000000000e+00  2.7203486669769072e-02 2.3477565444096518e-04 0.0000000000000000e+00  4.8512892332493340e-02 2.2307560321571798e-04 0.0000000000000000e+00  4.3601541036452203e-02 -1