<?xml version="1.0"?>
<VTKFile type="UnstructuredGrid"  version="0.1"  >
<UnstructuredGrid>
<Piece  NumberOfPoints="820" NumberOfCells="1464">
<Points>
<DataArray  type="Float64"  NumberOfComponents="3"  format="ascii">0 0.1 0  0 0 0  1 0 0  1 0.1 0  0.5 0 0  0.5 0.1 0  0.25 0 0  0.25 0.1 0  0.75 0.1 0  0.75 0 0  0.375 0.1 0  0.375 0 0  0.125 0 0  0.125 0.1 0  0.625 0 0  0.625 0.1 0  0.875 0.1 0  0.875 0 0  0.6875 0.1 0  0.6875 0 0  0.5625 0 0  0.5625 0.1 0  0.0625 0.1 0  0.0625 0 0  0.1875 0.1 0  0.1875 0 0  0.3125 0 0  0.3125 0.1 0  0.4375 0.1 0  0.4375 0 0  0.8125 0 0  0.8125 0.1 0  0.9375 0.1 0  0.9375 0 0  0.84375 0.05000000000000001 0  0.78125 0.05 0  0.34375 0.05000000000000001 0  0.28125 0.05 0  0.15625 0.05 0  0.21875 0.05000000000000001 0  0 0.05 0  0.09375 0.05000000000000001 0  0.40625 0.05 0  0.46875 0.05000000000000001 0  0.53125 0.05 0  0.59375 0.05000000000000001 0  0.65625 0.05 0  0.71875 0.05000000000000001 0  0.90625 0.05 0  1 0.05 0  0.046875 0.04453125000000001 0  0.953125 0.05546875 0  0.96875 0 0  0.03125 0.1 0  0.03125 0 0  0.96875 0.1 0  1 0.07500000000000001 0  0.875 0.06523437500000001 0  0.8715625 0.03261718750000001 0  0.84375 0 0  0.90625 0.1 0  0.625 0.06523437500000001 0  0.6215625 0.03261718750000001 0  0.59375 0 0  0.6875 0.034765625 0  0.6840625 0.0673828125 0  0.65625 0.1 0  0.71875 0 0  0.5625 0.06523437500000001 0  0.5590625 0.03261718750000001 0  0.53125 0 0  0.65625 0 0  0.59375 0.1 0  0.5 0.06523437500000001 0  0.4965625 0.03261718750000001 0  0.46875 0 0  0.53125 0.1 0  0.4375 0.06523437500000001 0  0.4340625 0.03261718750000001 0  0.40625 0 0  0.46875 0.1 0  0.375 0.06523437500000001 0  0.3715625 0.03261718750000001 0  0.34375 0 0  0.40625 0.1 0  0.09375 0 0  0.09375 0.1 0  0.125 0.06523437500000001 0  0.1215625 0.03261718750000001 0  0.1875 0.034765625 0  0.1840625 0.0673828125 0  0.15625 0.1 0  0.21875 0 0  0.15625 0 0  0.28125 0.1 0  0.3125 0.06523437500000001 0  0.3090625 0.03261718750000001 0  0.28125 0 0  0.25 0.034765625 0  0.2534375 0.0673828125 0  0.21875 0.1 0  0.34375 0.1 0  0.78125 0.1 0  0.8125 0.06523437500000001 0  0.8090625 0.03261718750000001 0  0.78125 0 0  0.75 0.034765625 0  0.7534375 0.0673828125 0  0.71875 0.1 0  0.90625 0 0  0.84375 0.1 0  0.9740776699029127 0.03143583131067961 0  0.921875 0.075 0  0 0.025 0  0.02592233009708738 0.06856416868932039 0  0.0725 0.028515625 0  0.921875 0.025 0  0.078125 0.07500000000000001 0  0.9484670937186905 0.0242372460741816 0  0.05153290628130947 0.07576275392581842 0  0.8963594872172794 0.02643561701079966 0  0.02229817708333334 0.0375 0  0.9777018229166666 0.06250000000000001 0  0.72590087890625 0.025 0  0.8345789124085022 0.025 0  0.22590087890625 0.025 0  0.3345789124085023 0.025 0  0.15996337890625 0.075 0  0.39909912109375 0.075 0  0.4595789124085023 0.025 0  0.52409912109375 0.075 0  0.5845789124085022 0.025 0  0.65996337890625 0.075 0  0.27753662109375 0.075 0  0.77753662109375 0.075 0  0 0.07500000000000001 0  1 0.025 0  0.85090087890625 0.07500000000000001 0  0.77409912109375 0.025 0  0.35090087890625 0.07500000000000001 0  0.27409912109375 0.025 0  0.3970789124085022 0.025 0  0.47590087890625 0.07500000000000001 0  0.5220789124085022 0.025 0  0.60090087890625 0.07500000000000001 0  0.66340087890625 0.025 0  0.16340087890625 0.025 0  0.2095789124085023 0.07500000000000001 0  0.7095789124085022 0.07500000000000001 0  0.0974991439537346 0.02496950333675565 0  0.1029665898617512 0.07685681883640554 0  0.8970334101382489 0.07685681883640554 0  0.7331321502083639 0.0805418246751822 0  0.2331321502083639 0.08054182467518221 0  0.04967773437499999 0.02050781250000001 0  0.9302821601941748 0.04763728762135922 0  0.9453125 0.07773437499999999 0  0.06981448887637284 0.05242311804773303 0  0.703125 0.0173828125 0  0.203125 0.0173828125 0  0.828125 0.08261718750000001 0  0.328125 0.08261718750000001 0  0.4213608787615672 0.08215505604972331 0  0.453125 0.08261718750000001 0  0.5463608787615671 0.08215505604972331 0  0.578125 0.08261718750000001 0  0.6405370048634059 0.0181271643224308 0  0.1405370048634059 0.0181271643224308 0  0.796875 0.1 0  0.296875 0.1 0  0.6389903131525874 0.08261718750000001 0  0.1389903131525873 0.08261718750000001 0  0.796875 0 0  0.296875 0 0  0.359375 0 0  0.421875 0 0  0.484375 0 0  0.546875 0 0  0.609375 0 0  0.859375 0 0  0.984375 0 0  0.015625 0 0  0.9808265015870887 0.08306437698386088 0  0.015625 0.1 0  0.140615310157384 0.03789815460447876 0  0.8258710430305984 0.04237660226422156 0  0.3258710430305984 0.04237660226422154 0  0.4508710430305984 0.04237660226422154 0  0.5758710430305984 0.04237660226422156 0  0.73925254007477 0.05238802290978471 0  0.23925254007477 0.05238802290978471 0  0.19824745992523 0.05238802290978471 0  0.3883710430305984 0.04237660226422155 0  0.5133710430305984 0.04237660226422155 0  0.69824745992523 0.05238802290978471 0  0.6406153101573839 0.03789815460447876 0  0.8875652355519991 0.04398459561477483 0  0.03011990291140283 0.01954869700666445 0  0.2976228417042103 0.07944206017604956 0  0.7976228417042103 0.07944206017604956 0  0.6048261925064409 0.0202852140350185 0  0.8548261925064409 0.0202852140350185 0  0.4173261925064409 0.02028521403501849 0  0.5423261925064409 0.02028521403501849 0  0.479826192506441 0.02028521403501848 0  0.354826192506441 0.02028521403501848 0  0.7612196085333947 0.08469269433495656 0  0.2612196085333947 0.08469269433495656 0  0.671875 0.1 0  0.171875 0.1 0  0.1138156987561534 0.01531102667280419 0  0.1439032206506398 0.06434174268079966 0  0.6439032206506399 0.06434174268079966 0  0.7102169938849521 0.03403655887996306 0  0.2102169938849521 0.03403655887996306 0  0.331272668838501 0.06407394409179688 0  0.8312726688385009 0.06407394409179688 0  0.456272668838501 0.06407394409179688 0  0.5812726688385009 0.06407394409179688 0  0.9626931005513372 0.08290734481438196 0  0.7935362330470901 0.01983307912641665 0  0.2935362330470901 0.01983307912641665 0  0.078125 0 0  0.4143262322415116 0.06583278773374907 0  0.5393262322415115 0.06583278773374907 0  0.6756954193768612 0.08284197013692297 0  0.1756954193768612 0.08284197013692297 0  0.1934564775596677 0.08246105735569852 0  0.6934564775596677 0.0824610573556985 0  0.7948904737904949 0.06168801049385652 0  0.2948904737904949 0.06168801049385652 0  0.42558837890625 0.05 0  0.55058837890625 0.05 0  0.185643310546875 0.0173828125 0  0.685643310546875 0.0173828125 0  0.6085613945093048 0.05928612183988766 0  0.4835613945093048 0.05928612183988766 0  0.3585613945093048 0.05928612183988766 0  0.8585613945093048 0.05928612183988766 0  0.2430157823768409 0.0173828125 0  0.743015782376841 0.0173828125 0  0.11308837890625 0.05 0  0.1710613945093048 0.04071387816011236 0  0.6710613945093048 0.04071387816011236 0  0.2664386054906952 0.04071387816011236 0  0.7664386054906952 0.04071387816011236 0  0.1200872144236349 0.08261718750000001 0  0.618015782376841 0.08261718750000001 0  0.4930157823768409 0.08261718750000001 0  0.3680157823768409 0.08261718750000001 0  0.868015782376841 0.08261718750000001 0  0.515625 0.1 0  0.390625 0.1 0  0.265625 0 0  0.765625 0 0  0.516365031953596 0.05946768293606444 0  0.3913650319535959 0.05946768293606444 0  0.8926135952226929 0.06033018746614476 0  0.171875 0 0  0.671875 0 0  0.890625 0 0  0.8808652108632187 0.0171078614816925 0  0.2274441083295474 0.06456313374723947 0  0.7274441083295474 0.06456313374723946 0  0.9350285939903868 0.06406852472525566 0  0.453125 0 0  0.4433265752246126 0.01710378970181546 0  0.328125 0 0  0.3183265752246126 0.01710378970181546 0  0.578125 0 0  0.5683265752246126 0.01710378970181545 0  0.828125 0 0  0.8183265752246126 0.01710378970181545 0  0.515625 0 0  0.5058265752246126 0.01710378970181545 0  0.390625 0 0  0.3808265752246126 0.01710378970181545 0  0.01564771141956889 0.08260299286276945 0  0.9843522885804311 0.01739700713723054 0  0.3551736619148977 0.03733645281383641 0  0.4801736619148977 0.03733645281383641 0  0.8551736619148977 0.03733645281383642 0  0.7687346279121444 0.06091681090943113 0  0.2687346279121444 0.06091681090943113 0  0.6687653720878556 0.06091681090943113 0  0.1687653720878556 0.06091681090943113 0  0.6051736619148977 0.03733645281383642 0  0.2924478939734164 0.03697522410746614 0  0.7924478939734163 0.03697522410746614 0  0.8719142286486647 0.04906985056606887 0  0.6274213820068905 0.04848945596065109 0  0.4983341418505795 0.04892020701904073 0  0.3733341418505795 0.04892020701904073 0  0.3108341418505795 0.04892020701904073 0  0.8108341418505794 0.04892020701904073 0  0.6242024164762008 0.01640567476785111 0  0.3848561971730207 0.08410836408489761 0  0.5098561971730207 0.08410836408489761 0  0.2598561971730207 0.01589163591510238 0  0.7598561971730207 0.01589163591510238 0  0.890625 0.1 0  0.9582054159658413 0.03874795528975266 0  0.03565822065430611 0.08308352918541601 0  0.9643417793456939 0.016916470814584 0  0 0.0625 0  0.0168287001921521 0.05388159890776699 0  0.0417945840341587 0.06125204471024735 0  0.9831712998078479 0.04611840109223304 0  0.5622607296296599 0.08116332765030569 0  0.4372607296296599 0.08116332765030566 0  0.046875 0.1 0  0.953125 0 0  0.415919189453125 0.03668247284720479 0  0.540919189453125 0.03668247284720479 0  0.0859375 0.01393925506164327 0  0.109375 0.1 0  0.1338555271916189 0.05216484236021472 0  0.953125 0.1 0  0.140625 0 0  0.640625 0 0  0.546875 0.1 0  0.421875 0.1 0  0.203125 0 0  0.703125 0 0  0.046875 0 0  0.234375 0.1 0  0.734375 0.1 0  0.078125 0.1 0  0.921875 0 0  0.921875 0.1 0  0.828125 0.1 0  0.328125 0.1 0  0.453125 0.1 0  0.578125 0.1 0  0.640625 0.1 0  0.140625 0.1 0  0.984375 0.1 0  0.765625 0.1 0  0.265625 0.1 0  0.109375 0 0  0.203125 0.1 0  0.703125 0.1 0  0.234375 0 0  0.734375 0 0  0.609375 0.1 0  0.484375 0.1 0  0.359375 0.1 0  0.859375 0.1 0  0.03162846341645094 0.04971906156616034 0  0.9677597279973049 0.05078312969016881 0  0.8125319459969864 0.08431483734279674 0  0.3125319459969864 0.08431483734279674 0  0.01533347852251798 0.02378565849770013
[...]
<PointData  Vectors="damage"> 
<DataArray  type="Float64"  Name="damage"  NumberOfComponents="3" format="ascii">0.0000000000000000e+00 0.0000000000000000e+00 0.0000000000000000e+00  0.0000000000000000e+00 0.0000000000000000e+00 0.0000000000000000e+00  2.9747030714953954e-01 0.0000000000000000e+00 0.0000000000000000e+00  2.9747030714953954e-01 0.0000000000000000e+00 0.0000000000000000e+00  5.8221562353825388e-04 5.3054637680443998e-04 0.0000000000000000e+00  2.9850575096878267e-04 -2.0647347594705628e-04 0.0000000000000000e+00  4.3389578323200649e-05 -1.4261166624401752e-05 0.0000000000000000e+00  5.0584782786438333e-05 -1.9936009596709102e-05 0.0000000000000000e+00  2.9746073307937843e-01 9.9482296122814225e-05 0.0000000000000000e+00  2.9738590832606460e-01 1.0517372744418259e-04 0.0000000000000000e+00  7.0965091248192158e-05 -2.6341432413844451e-05 0.0000000000000000e+00  7.0498946997204858e-05 -2.1087952601416778e-05 0.0000000000000000e+00  1.9835642364553116e-05 -3.5547641793326667e-06 0.0000000000000000e+00  2.6875893997000770e-05 -9.2602421421422842e-06 0.0000000000000000e+00  2.9734838742458258e-01 2.1732405653696158e-04 0.0000000000000000e+00  2.9745055773464396e-01 2.1213203451391879e-04 0.0000000000000000e+00  2.9746739405298200e-01 2.5377672486524425e-05 0.0000000000000000e+00  2.9742652198281833e-01 3.1033931651621626e-05 0.0000000000000000e+00  2.9745622498701224e-01 1.5148422551484490e-04 0.0000000000000000e+00  2.9736682773489581e-01 1.5707970555953253e-04 0.0000000000000000e+00  2.9732482226347295e-01 2.8913234749653258e-04 0.0000000000000000e+00  2.9743945365625246e-01 2.7763452470544350e-04 0.0000000000000000e+00  1.3897549570108787e-05 -5.0398700434152398e-06 0.0000000000000000e+00  9.4806457939111643e-06 6.2135253723234271e-07 0.0000000000000000e+00  3.9158206006068642e-05 -1.4563244106606783e-05 0.0000000000000000e+00  3.1180587018805902e-05 -8.8938696474527639e-06 0.0000000000000000e+00  5.6442099128561539e-05 -1.8628693109307465e-05 0.0000000000000000e+00  6.1148455652301390e-05 -2.4269972302143184e-05 0.0000000000000000e+00  8.3295296505468095e-05 -2.6901464712554691e-05 0.0000000000000000e+00  8.9964276249850802e-05 -1.8133355688136233e-05 0.0000000000000000e+00  2.9740581544149614e-01 6.2780433443455395e-05 0.0000000000000000e+00  2.9746449818473847e-01 5.7111208773449018e-05 0.0000000000000000e+00  2.9746924434402050e-01 5.3516886060300649e-06 0.0000000000000000e+00  2.9744798296749508e-01 1.1037365267269699e-05 0.0000000000000000e+00  2.9744104078722372e-01 4.1590987490221897e-05 0.0000000000000000e+00  2.9742922218723267e-01 7.8842692325221310e-05 0.0000000000000000e+00  6.4689042915803903e-05 -2.3161881539588892e-05 0.0000000000000000e+00  5.2899249915460156e-05 -1.9626974044281198e-05 0.0000000000000000e+00  2.9266003599214318e-05 -8.9395786918905923e-06 0.0000000000000000e+00  4.1082207396295129e-05 -1.4521124186354468e-05 0.0000000000000000e+00  0.0000000000000000e+00 0.0000000000000000e+00 0.0000000000000000e+00  1.7412647209411676e-05 -3.9412777750020399e-06 0.0000000000000000e+00  7.5817957496746003e-05 -2.4071611735249730e-05 0.0000000000000000e+00  9.2801060568358632e-05 -2.2837455770512851e-05 0.0000000000000000e+00  2.9737200311460210e-01 3.1791653283430842e-04 0.0000000000000000e+00  2.9739459285185960e-01 2.4719824034161978e-04 0.0000000000000000e+00  2.9740563347834853e-01 1.8272891525814589e-04 0.0000000000000000e+00  2.9741742975769198e-01 1.2630195115372850e-04 0.0000000000000000e+00  2.9745287928918557e-01 1.5505261655715739e-05 0.0000000000000000e+00  2.9747030714953954e-01 0.0000000000000000e+00 0.0000000000000000e+00  8.2657124876775344e-06 -9.4061860664589924e-07 0.0000000000000000e+00  2.9746271657494083e-01 3.6005085341769400e-06 0.0000000000000000e+00  2.9745872742741913e-01 5.3054416678952229e-06 0.0000000000000000e+00  7.3128744392510597e-06 -3.2644253500082064e-06 0.0000000000000000e+00  4.8888995279235577e-06 1.5646707487003844e-06 0.0000000000000000e+00  2.9746966679193532e-01 5.3776279285855777e-07 0.0000000000000000e+00  2.9747030714953954e-01 0.0000000000000000e+00 0.0000000000000000e+00  2.9745314130493816e-01 2.6300774600232168e-05 0.0000000000000000e+00  2.9743906774458728e-01 2.9690434431434794e-05 0.0000000000000000e+00  2.9741602776446713e-01 4.5598731836362784e-05 0.0000000000000000e+00  2.9746841760838738e-01 1.3766994315856789e-05 0.0000000000000000e+00  2.9741536721790585e-01 2.1339820328158021e-04 0.0000000000000000e+00  2.9738142910037746e-01 2.1848701217563711e-04 0.0000000000000000e+00  2.9733845680820375e-01 2.5080304348956998e-04 0.0000000000000000e+00  2.9739793477563109e-01 1.5438764983159134e-04 0.0000000000000000e+00  2.9742646763340019e-01 1.5571112662257357e-04 0.0000000000000000e+00  2.9745357269768580e-01 1.8076109153136646e-04 0.0000000000000000e+00  2.9737627321912646e-01 1.2996023755774543e-04 0.0000000000000000e+00  2.9740510841540030e-01 2.8050593875038148e-04 0.0000000000000000e+00  2.9736637861280824e-01 2.8861606237175929e-04 0.0000000000000000e+00  2.9729360978558245e-01 3.4675451696569753e-04 0.0000000000000000e+00  2.9735764687960398e-01 1.8625971023884539e-04 0.0000000000000000e+00  2.9744663988679937e-01 2.4502826827968449e-04 0.0000000000000000e+00  1.8349697271008891e-04 -3.5696952579645174e-05 0.0000000000000000e+00  3.3997915021231575e-04 -7.8141960536405276e-06 0.0000000000000000e+00  1.2024404457169635e-04 2.2390813133069268e-06 0.0000000000000000e+00  2.9741296044036530e-01 2.9906891471598323e-04 0.0000000000000000e+00  8.1013588409778223e-05 -2.4401040930365294e-05 0.0000000000000000e+00  8.2382939724673414e-05 -2.2024499864688044e-05 0.0000000000000000e+00  7.8440696647628163e-05 -2.1065462121029342e-05 0.0000000000000000e+00  1.0062322425747700e-04 -3.3466885259331343e-05 0.0000000000000000e+00  7.0533165696794891e-05 -2.4712068093245621e-05 0.0000000000000000e+00  6.9794757175013311e-05 -2.3056555433927683e-05 0.0000000000000000e+00  6.3282844552184055e-05 -2.0124840195874868e-05 0.0000000000000000e+00  7.6137185435144582e-05 -2.6317965145996447e-05 0.0000000000000000e+00  1.4518034702530275e-05 -1.2358610532604569e-06 0.0000000000000000e+00  2.0439081819475788e-05 -6.9705296129634609e-06 0.0000000000000000e+00  2.4369643712916517e-05 -7.1849513275776773e-06 0.0000000000000000e+00  2.1559541293572825e-05 -5.0451490347372278e-06 0.0000000000000000e+00  3.4015800534476144e-05 -1.0860453422069560e-05 0.0000000000000000e+00  3.5842155546329879e-05 -1.2403059362563094e-05 0.0000000000000000e+00  3.3123798803284452e-05 -1.1832255744669251e-05 0.0000000000000000e+00  3.7179073474171664e-05 -1.1642838822555742e-05 0.0000000000000000e+00  2.5397842376768604e-05 -6.1591678468743708e-06 0.0000000000000000e+00  5.5981418029239105e-05 -2.2308570674200906e-05 0.0000000000000000e+00  5.9466874205509153e-05 -2.2482498012454645e-05 0.0000000000000000e+00  5.7366414750029648e-05 -2.0438725976314441e-05 0.0000000000000000e+00  4.9802959946566087e-05 -1.6637476102271296e-05 0.0000000000000000e+00  4.5951990813295756e-05 -1.6326390605972848e-05 0.0000000000000000e+00  4.8807051308570858e-05 -1.8454448147965043e-05 0.0000000000000000e+00  4.4980858082508355e-05 -1.7309193899572400e-05 0.0000000000000000e+00  6.6099796620104035e-05 -2.5685148732661484e-05 0.0000000000000000e+00  2.9746276494119139e-01 7.6997133412152062e-05 0.0000000000000000e+00  2.9744401042694463e-01 5.8180114829781977e-05 0.0000000000000000e+00  2.9742415912651132e-01 6.2145685696371125e-05 0.0000000000000000e+00  2.9739570549659194e-01 8.2685787956292105e-05 0.0000000000000000e+00  2.9741198977494476e-01 1.0233428405508918e-04 0.0000000000000000e+00  2.9743674352359312e-01 9.7921462360744404e-05 0.0000000000000000e+00  2.9745862087667257e-01 1.2430029970656031e-04 0.0000000000000000e+00  2.9743723257818272e-01 1.9535144755412327e-05 0.0000000000000000e+00  2.9746598717213529e-01 3.9780874026148855e-05 0.0000000000000000e+00  2.9746423350394219e-01 1.9260646041960263e-06 0.0000000000000000e+00  2.9746229393233370e-01 9.6547256839293003e-06 0.0000000000000000e+00  0.0000000000000000e+00 0.0000000000000000e+00 0.0000000000000000e+00  4.8747878320503030e-06 -1.1984052090643597e-06 0.0000000000000000e+00  1.2408029352911134e-05 -1.3522543443818627e-06 0.0000000000000000e+00  2.9744932926584872e-01 1.2529620795092358e-05 0.0000000000000000e+00  1.5705773535745321e-05 -4.4121012590978282e-06 0.0000000000000000e+00  2.9745641276290019e-01 6.4400981939394647e-06 0.0000000000000000e+00  1.0311824433745309e-05 -2.9154776383989227e-06 0.0000000000000000e+00  2.9744300704941318e-01 2.0426822511406546e-05 0.0000000000000000e+00  3.6482695588007157e-06 6.3521740880480043e-08 0.0000000000000000e+00  2.9746737484409658e-01 3.6340294166325789e-07 0.0000000000000000e+00  2.9739864574469821e-01 1.2202529488493433e-04 0.0000000000000000e+00  2.9742622994013018e-01 4.8078556196947998e-05 0.0000000000000000e+00  4.0581701893219276e-05 -1.3716795146833548e-05 0.0000000000000000e+00  6.2195702245464358e-05 -2.1341986380345933e-05 0.0000000000000000e+00  3.1831450604171503e-05 -1.0697231341955661e-05 0.0000000000000000e+00  7.4616758474657096e-05 -2.5155178439704651e-05 0.0000000000000000e+00  9.2582726755538713e-05 -1.6219449212454267e-05 0.0000000000000000e+00  2.9739458761945647e-01 3.1456462778175836e-04 0.0000000000000000e+00  2.9736486061732403e-01 2.5884665173553031e-04 0.0000000000000000e+00  2.9743003583298250e-01 1.7798662698470936e-04 0.0000000000000000e+00  5.3697514000259101e-05 -2.0730927138065983e-05 0.0000000000000000e+00  2.9744544992233057e-01 8.0265289473115405e-05 0.0000000000000000e+00  0.0000000000000000e+00 0.0000000000000000e+00 0.0000000000000000e+00  2.9747030714953954e-01 0.0000000000000000e+00 0.0000000000000000e+00  2.9745427160287036e-01 3.6853268667509248e-05 0.0000000000000000e+00  2.9741071191820689e-01 8.5459317894762688e-05 0.0000000000000000e+00  6.6561601723783879e-05 -2.4691224756921775e-05 0.0000000000000000e+00  5.0007538126105773e-05 -1.7643896809511229e-05 0.0000000000000000e+00  7.5089165623441637e-05 -2.2938212154474652e-05 0.0000000000000000e+00  9.4047051593341974e-05 -3.1974591933224376e-05 0.0000000000000000e+00  2.9730671514189611e-01 3.5148665136472743e-04 0.0000000000000000e+00  2.9742181282990537e-01 2.3844009408220175e-04 0.0000000000000000e+00  2.9738341239898525e-01 1.7740954947621933e-04 0.0000000000000000e+00  2.8738989538824343e-05 -8.1616989180034134e-06 0.0000000000000000e+00  4.1242620171196294e-05 -1.5117558161239382e-05 0.0000000000000000e+00  2.9743668833296372e-01 1.3282598311083578e-04 0.0000000000000000e+00  1.6705306982610820e-05 -2.7954763628539106e-06 0.0000000000000000e+00  2.0802488557057672e-05 -6.1893054819876218e-06 0.0000000000000000e+00  2.9746018546867864e-01 1.7353075541946110e-05 0.0000000000000000e+00  2.9744418753587037e-01 1.1312325426018771e-04 0.0000000000000000e+00  4.6036083480271555e-05 -1.7484045372150211e-05 0.0000000000000000e+00  8.1292742210949293e-06 1.8240707214941211e-07 0.0000000000000000e+00  2.9745695622020168e-01 8.7420054714058825e-06 0.0000000000000000e+00  2.9746533003177827e-01 4.1548620814875655e-06 0.0000000000000000e+00  1.2935052031688683e-05 -2.5475328511414096e-06 0.0000000000000000e+00  2.9738651125737597e-01 1.4179170023265943e-04 0.0000000000000000e+00  3.5607029925666383e-05 -1.1271506461318255e-05 0.0000000000000000e+00  2.9745575234583982e-01 4.8509474971920226e-05 0.0000000000000000e+00  6.2927077181858387e-05 -2.4201502590210715e-05 0.0000000000000000e+00  7.8509580676381833e-05 -2.5309208700324276e-05 0.0000000000000000e+00  8.5879684397622853e-05 -2.6715445978096085e-05 0.0000000000000000e+00  2.9741767388423995e-01 2.9497898028488744e-04 0.0000000000000000e+00  2.9742602271044544e-01 2.6261113226955885e-04 0.0000000000000000e+00  2.9737107415323638e-01 2.0016446603161699e-04 0.0000000000000000e+00  2.4000903808786412e-05 -5.8029448820769690e-06 0.0000000000000000e+00  2.9746368949512525e-01 6.6745531989576874e-05 0.0000000000000000e+00  5.8598018241273648e-05 -2.3349561800861463e-05 0.0000000000000000e+00  2.9743463997851638e-01 1.9844317188707502e-04 0.0000000000000000e+00  2.8334766149551807e-05 -9.3495828112985755e-06 0.0000000000000000e+00  2.9740072623242220e-01 7.2377446149629341e-05 0.0000000000000000e+00  5.3093061534054261e-05 -1.7692559928023983e-05 0.0000000000000000e+00  6.6824646303726611e-05 -2.0699882617961227e-05 0.0000000000000000e+00  8.3408460925228850e-05 -2.0309648344750820e-05 0.0000000000000000e+00  1.6813694367682301e-04 4.4424726679446875e-05 0.0000000000000000e+00  2.9731277870830408e-01 3.1356155669244997e-04 0.0000000000000000e+00  2.9734364736113889e-01 2.3367742759658824e-04 0.0000000000000000e+00  2.9742125557285498e-01 3.7924844327961081e-05 0.0000000000000000e+00  2.9746411609358225e-01 3.0407547704692150e-06 0.0000000000000000e+00  2.6464046936429253e-06 1.3888477556003391e-06 0.0000000000000000e+00  2.9746898484810785e-01 -1.5953704529598837e-07 0.0000000000000000e+00  3.9015312134906602e-06 -2.0547233942043157e-06 0.0000000000000000e+00  2.5453547153914487e-05 -6.9075062377382824e-06 0.0000000000000000e+00  2.9743349095667521e-01 5.1638260537415829e-05 0.0000000000000000e+00  6.1060572947184245e-05 -2.1937554119087875e-05 0.0000000000000000e+00  8.5679828216732532e-05 -2.1563648375341576e-05 0.0000000000000000e+00  2.9738280744452295e-01 2.6750761791270446e-04 0.0000000000000000e+00  2.9742310709269382e-01 1.0955715506452433e-04 0.0000000000000000e+00  4.5123663998124613e-05 -1.6435652126856680e-05 0.0000000000000000e+00  3.7385445332511633e-05 -1.2826903632743216e-05 0.0000000000000000e+00  7.2888826508328911e-05 -2.3778572038403196e-05 0.0000000000000000e+00  2.9726458503811098e-01 3.5611408712034462e-04 0.0000000000000000e+00  2.9741559775527915e-01 1.4373536300216062e-04 0.0000000000000000e+00  2.9739076177053875e-01 1.9881345445513194e-04 0.0000000000000000e+00  2.9744713990501148e-01 2.2425218606186873e-05 0.0000000000000000e+00  4.7950831466192841e-06 6.9655157547360960e-07 0.0000000000000000e+00  5.7521571124088513e-05 -2.2349745731685800e-05 0.0000000000000000e+00  2.9745071805988493e-01 6.6759656891327143e-05 0.0000000000000000e+00  2.9736449415277938e-01 2.3688196027534940e-04 0.0000000000000000e+00  2.9742930791594124e-01 3.8202122379805662e-05 0.0000000000000000e+00  7.9806655578819422e-05 -2.2269880074205616e-05 0.0000000000000000e+00  2.9734124562642006e-01 3.1480400961725352e-04 0.0000000000000000e+00  1.1501340892774128e-04 8.6940635179944214e-07 0.0000000000000000e+00  6.6271550660579028e-05 -2.1870867917230326e-05 0.0000000000000000e+00  2.9745038923121309e-01 9.1566523918012771e-05 0.0000000000000000e+00  5.1420880609925853e-05 -2.0008356950610988e-05 0.0000000000000000e+00  2.9745491214030628e-01 1.6583651227825797e-04 0.0000000000000000e+00  3.6166757599945410e-05 -1.3190010591667050e-05 0.0000000000000000e+00  1.8994859270749919e-05 -3.4897481764121684e-06 0.0000000000000000e+00  2.7949680812716783e-05 -8.6959753407143556e-06 0.0000000000000000e+00  2.9741741987423131e-01 1.9424089042398689e-04 0.0000000000000000e+00  2.9740236037707080e-01 1.3451379921475607e-04 0.0000000000000000e+00  3.8263863155993142e-05 -1.2853546109499926e-05 0.0000000000000000e+00  6.2806109179093278e-05 -2.3380976456393007e-05 0.0000000000000000e+00  2.9744614938880776e-01 4.7492951265206395e-05 0.0000000000000000e+00  8.5535236944150945e-05 -2.5065186634522847e-05 0.0000000000000000e+00  2.9740746459219597e-01 2.6015497221803336e-04 0.0000000000000000e+00  2.9746758255081135e-01 1.3164367699477427e-06 0.0000000000000000e+00  2.9741236270073840e-01 7.2796671633898507e-05 0.0000000000000000e+00  5.3585816357400309e-05 -1.8702229411982620e-05 0.0000000000000000e+00  1.1956287250552634e-05 -2.3586302696850985e-07 0.0000000000000000e+00  7.6969094627523849e-05 -2.4604611330608792e-05 0.0000000000000000e+00  2.9739801199362165e-01 3.0438433548406831e-04 0.0000000000000000e+00  2.9743935762163848e-01 1.6279591725624885e-04 0.0000000000000000e+00  3.5467374019153483e-05 -1.2538474758660005e-05 0.0000000000000000e+00  3.8807788749968316e-05 -1.4097945839701146e-05 0.0000000000000000e+00  2.9744115815371691e-01 1.4662716752694572e-04 0.0000000000000000e+00  2.9743917672338965e-01 6.9251243106491445e-05 0.0000000000000000e+00  5.6086635993941036e-05 -2.1213660964081998e-05 0.0000000000000000e+00  7.9134183475643727e-05 -2.3642639748104049e-05 0.0000000000000000e+00  2.9738445586559564e-01 2.9581420683411622e-04 0.0000000000000000e+00  3.2296432545990755e-05 -9.7110687196409623e-06 0.0000000000000000e+00  2.9738193926659978e-01 1.5731215076803066e-04 0.0000000000000000e+00  2.9740677613502886e-01 2.3086733188506608e-04 0.0000000000000000e+00  1.0159179928671705e-04 -2.8213461263292433e-05 0.0000000000000000e+00  6.7589332592306878e-05 -2.4130933085106225e-05 0.0000000000000000e+00  2.9744805179501432e-01 3.3833612407637588e-05 0.0000000000000000e+00  4.3333913499042435e-05 -1.4728399762622089e-05 0.0000000000000000e+00  2.9739707171372420e-01 1.0901476174851336e-04 0.0000000000000000e+00  2.1089320976672729e-05 -5.3637430133080109e-06 0.0000000000000000e+00  3.1369461479283956e-05 -9.7236697087168562e-06 0.0000000000000000e+00  2.9739980814980510e-01 1.6914868560718050e-04 0.0000000000000000e+00  4.9510979682415370e-05 -1.7982778109382023e-05 0.0000000000000000e+00  2.9741987754876581e-01 8.9790086579405774e-05 0.0000000000000000e+00  2.4604343013491427e-05 -7.8275740929497144e-06 0.0000000000000000e+00  2.9743195279225598e-01 2.2002529569573311e-04 0.0000000000000000e+00  1.2244785551278589e-04 -5.5929092312476239e-05 0.0000000000000000e+00  6.9594915055839991e-05 -2.5427118700629670e-05 0.0000000000000000e+00  2.9745952741072512e-01 2.8733299665186905e-05 0.0000000000000000e+00  2.9729530296349765e-01 2.3555622249558008e-04 0.0000000000000000e+00  7.3473405250287720e-05 -2.6391198223066591e-05 0.0000000000000000e+00  4.6570373956595578e-05 -1.5490143913552732e-05 0.0000000000000000e+00  2.9739076453435342e-01 9.3607319031733215e-05 0.0000000000000000e+00  2.9735005567529549e-01 3.3038922214205188e-04 0.0000000000000000e+00  7.3263023482709355e-05 -2.4538780653088089e-05 0.0000000000000000e+00  2.9745387761731268e-01 1.9682001544279169e-05 0.0000000000000000e+00  2.8265563907096810e-05 -7.5150579735518726e-06 0.0000000000000000e+00  2.9736217239511459e-01 1.7139084589569702e-04 0.0000000000000000e+00  2.9743184560752201e-01 2.4894374035430384e-05 0.0000000000000000e+00  2.9743533779356718e-01 2.7032970391764256e-05 0.0000000000000000e+00  4.3787029518202538e-05 -1.6106295632069140e-05 0.0000000000000000e+00  2.9743068492785285e-01 1.1837873215885198e-04 0.0000000000000000e+00  2.9746142332767117e-01 6.7593071031725887e-06 0.0000000000000000e+00  1.0030673679516372e-04 -1.2688546259456549e-05 0.0000000000000000e+00  8.7883628496697664e-05 -1.9280740351173249e-05 0.0000000000000000e+00  5.9825644253213505e-05 -1.9431154360742495e-05 0.0000000000000000e+00  5.8537891794176583e-05 -2.0036967511932362e-05 0.0000000000000000e+00  2.9733240197599414e-01 2.6931615867926631e-04 0.0000000000000000e+00  2.9735038321717400e-01 2.7896435538802173e-04 0.0000000000000000e+00  2.9741086375657594e-01 5.3911860056288170e-05 0.0000000000000000e+00  2.9741752441391134e-01 5.7797492988479713e-05 0.0000000000000000e+00  2.9724816535987103e-01 3.9828657576350510e-04 0.0000000000000000e+00  2.9696461340304187e-01 3.1876979522891077e-04 0.0000000000000000e+00  7.4308396538200233e-05 -2.1205444051379425e-05 0.0000000000000000e+00  7.1849265002436901e-05 -2.2344143075589223e-05 0.0000000000000000e+00  3.1009218706952626e-06 -1.1400917065546351e-06 0.0000000000000000e+00  2.9746598732620816e-01 1.4219807500610969e-06 0.0000000000000000e+00  6.6615203087940885e-05 -2.2875234094609274e-05 0.0000000000000000e+00  1.1007403398681728e-04 -1.5601662946750019e-05 0.0000000000000000e+00  2.9743731758058295e-01 3.6766319356537173e-05 0.0000000000000000e+00  2.9743448225344360e