<?xml version="1.0"?>
<VTKFile type="UnstructuredGrid"  version="0.1"  >
<UnstructuredGrid>
<Piece  NumberOfPoints="820" NumberOfCells="1464">
<Points>
<DataArray  type="Float64"  NumberOfComponents="3"  format="ascii">0 0.1 0  0 0 0  1 0 0  1 0.1 0  0.5 0 0  0.5 0.1 0  0.25 0 0  0.25 0.1 0  0.75 0.1 0  0.75 0 0  0.375 0.1 0  0.375 0 0  0.125 0 0  0.125 0.1 0  0.625 0 0  0.625 0.1 0  0.875 0.1 0  0.875 0 0  0.6875 0.1 0  0.6875 0 0  0.5625 0 0  0.5625 0.1 0  0.0625 0.1 0  0.0625 0 0  0.1875 0.1 0  0.1875 0 0  0.3125 0 0  0.3125 0.1 0  0.4375 0.1 0  0.4375 0 0  0.8125 0 0  0.8125 0.1 0  0.9375 0.1 0  0.9375 0 0  0.84375 0.05000000000000001 0  0.78125 0.05 0  0.34375 0.05000000000000001 0  0.28125 0.05 0  0.15625 0.05 0  0.21875 0.05000000000000001 0  0 0.05 0  0.09375 0.05000000000000001 0  0.40625 0.05 0  0.46875 0.05000000000000001 0  0.53125 0.05 0  0.59375 0.05000000000000001 0  0.65625 0.05 0  0.71875 0.05000000000000001 0  0.90625 0.05 0  1 0.05 0  0.046875 0.04453125000000001 0  0.953125 0.05546875 0  0.96875 0 0  0.03125 0.1 0  0.03125 0 0  0.96875 0.1 0  1 0.07500000000000001 0  0.875 0.06523437500000001 0  0.8715625 0.03261718750000001 0  0.84375 0 0  0.90625 0.1 0  0.625 0.06523437500000001 0  0.6215625 0.03261718750000001 0  0.59375 0 0  0.6875 0.034765625 0  0.6840625 0.0673828125 0  0.65625 0.1 0  0.71875 0 0  0.5625 0.06523437500000001 0  0.5590625 0.03261718750000001 0  0.53125 0 0  0.65625 0 0  0.59375 0.1 0  0.5 0.06523437500000001 0  0.4965625 0.03261718750000001 0  0.46875 0 0  0.53125 0.1 0  0.4375 0.06523437500000001 0  0.4340625 0.03261718750000001 0  0.40625 0 0  0.46875 0.1 0  0.375 0.06523437500000001 0  0.3715625 0.03261718750000001 0  0.34375 0 0  0.40625 0.1 0  0.09375 0 0  0.09375 0.1 0  0.125 0.06523437500000001 0  0.1215625 0.03261718750000001 0  0.1875 0.034765625 0  0.1840625 0.0673828125 0  0.15625 0.1 0  0.21875 0 0  0.15625 0 0  0.28125 0.1 0  0.3125 0.06523437500000001 0  0.3090625 0.03261718750000001 0  0.28125 0 0  0.25 0.034765625 0  0.2534375 0.0673828125 0  0.21875 0.1 0  0.34375 0.1 0  0.78125 0.1 0  0.8125 0.06523437500000001 0  0.8090625 0.03261718750000001 0  0.78125 0 0  0.75 0.034765625 0  0.7534375 0.0673828125 0  0.71875 0.1 0  0.90625 0 0  0.84375 0.1 0  0.9740776699029127 0.03143583131067961 0  0.921875 0.075 0  0 0.025 0  0.02592233009708738 0.06856416868932039 0  0.0725 0.028515625 0  0.921875 0.025 0  0.078125 0.07500000000000001 0  0.9484670937186905 0.0242372460741816 0  0.05153290628130947 0.07576275392581842 0  0.8963594872172794 0.02643561701079966 0  0.02229817708333334 0.0375 0  0.9777018229166666 0.06250000000000001 0  0.72590087890625 0.025 0  0.8345789124085022 0.025 0  0.22590087890625 0.025 0  0.3345789124085023 0.025 0  0.15996337890625 0.075 0  0.39909912109375 0.075 0  0.4595789124085023 0.025 0  0.52409912109375 0.075 0  0.5845789124085022 0.025 0  0.65996337890625 0.075 0  0.27753662109375 0.075 0  0.77753662109375 0.075 0  0 0.07500000000000001 0  1 0.025 0  0.85090087890625 0.07500000000000001 0  0.77409912109375 0.025 0  0.35090087890625 0.07500000000000001 0  0.27409912109375 0.025 0  0.3970789124085022 0.025 0  0.47590087890625 0.07500000000000001 0  0.5220789124085022 0.025 0  0.60090087890625 0.07500000000000001 0  0.66340087890625 0.025 0  0.16340087890625 0.025 0  0.2095789124085023 0.07500000000000001 0  0.7095789124085022 0.07500000000000001 0  0.0974991439537346 0.02496950333675565 0  0.1029665898617512 0.07685681883640554 0  0.8970334101382489 0.07685681883640554 0  0.7331321502083639 0.0805418246751822 0  0.2331321502083639 0.08054182467518221 0  0.04967773437499999 0.02050781250000001 0  0.9302821601941748 0.04763728762135922 0  0.9453125 0.07773437499999999 0  0.06981448887637284 0.05242311804773303 0  0.703125 0.0173828125 0  0.203125 0.0173828125 0  0.828125 0.08261718750000001 0  0.328125 0.08261718750000001 0  0.4213608787615672 0.08215505604972331 0  0.453125 0.08261718750000001 0  0.5463608787615671 0.08215505604972331 0  0.578125 0.08261718750000001 0  0.6405370048634059 0.0181271643224308 0  0.1405370048634059 0.0181271643224308 0  0.796875 0.1 0  0.296875 0.1 0  0.6389903131525874 0.08261718750000001 0  0.1389903131525873 0.08261718750000001 0  0.796875 0 0  0.296875 0 0  0.359375 0 0  0.421875 0 0  0.484375 0 0  0.546875 0 0  0.609375 0 0  0.859375 0 0  0.984375 0 0  0.015625 0 0  0.9808265015870887 0.08306437698386088 0  0.015625 0.1 0  0.140615310157384 0.03789815460447876 0  0.8258710430305984 0.04237660226422156 0  0.3258710430305984 0.04237660226422154 0  0.4508710430305984 0.04237660226422154 0  0.5758710430305984 0.04237660226422156 0  0.73925254007477 0.05238802290978471 0  0.23925254007477 0.05238802290978471 0  0.19824745992523 0.05238802290978471 0  0.3883710430305984 0.04237660226422155 0  0.5133710430305984 0.04237660226422155 0  0.69824745992523 0.05238802290978471 0  0.6406153101573839 0.03789815460447876 0  0.8875652355519991 0.04398459561477483 0  0.03011990291140283 0.01954869700666445 0  0.2976228417042103 0.07944206017604956 0  0.7976228417042103 0.07944206017604956 0  0.6048261925064409 0.0202852140350185 0  0.8548261925064409 0.0202852140350185 0  0.4173261925064409 0.02028521403501849 0  0.5423261925064409 0.02028521403501849 0  0.479826192506441 0.02028521403501848 0  0.354826192506441 0.02028521403501848 0  0.7612196085333947 0.08469269433495656 0  0.2612196085333947 0.08469269433495656 0  0.671875 0.1 0  0.171875 0.1 0  0.1138156987561534 0.01531102667280419 0  0.1439032206506398 0.06434174268079966 0  0.6439032206506399 0.06434174268079966 0  0.7102169938849521 0.03403655887996306 0  0.2102169938849521 0.03403655887996306 0  0.331272668838501 0.06407394409179688 0  0.8312726688385009 0.06407394409179688 0  0.456272668838501 0.06407394409179688 0  0.5812726688385009 0.06407394409179688 0  0.9626931005513372 0.08290734481438196 0  0.7935362330470901 0.01983307912641665 0  0.2935362330470901 0.01983307912641665 0  0.078125 0 0  0.4143262322415116 0.06583278773374907 0  0.5393262322415115 0.06583278773374907 0  0.6756954193768612 0.08284197013692297 0  0.1756954193768612 0.08284197013692297 0  0.1934564775596677 0.08246105735569852 0  0.6934564775596677 0.0824610573556985 0  0.7948904737904949 0.06168801049385652 0  0.2948904737904949 0.06168801049385652 0  0.42558837890625 0.05 0  0.55058837890625 0.05 0  0.185643310546875 0.0173828125 0  0.685643310546875 0.0173828125 0  0.6085613945093048 0.05928612183988766 0  0.4835613945093048 0.05928612183988766 0  0.3585613945093048 0.05928612183988766 0  0.8585613945093048 0.05928612183988766 0  0.2430157823768409 0.0173828125 0  0.743015782376841 0.0173828125 0  0.11308837890625 0.05 0  0.1710613945093048 0.04071387816011236 0  0.6710613945093048 0.04071387816011236 0  0.2664386054906952 0.04071387816011236 0  0.7664386054906952 0.04071387816011236 0  0.1200872144236349 0.08261718750000001 0  0.618015782376841 0.08261718750000001 0  0.4930157823768409 0.08261718750000001 0  0.3680157823768409 0.08261718750000001 0  0.868015782376841 0.08261718750000001 0  0.515625 0.1 0  0.390625 0.1 0  0.265625 0 0  0.765625 0 0  0.516365031953596 0.05946768293606444 0  0.3913650319535959 0.05946768293606444 0  0.8926135952226929 0.06033018746614476 0  0.171875 0 0  0.671875 0 0  0.890625 0 0  0.8808652108632187 0.0171078614816925 0  0.2274441083295474 0.06456313374723947 0  0.7274441083295474 0.06456313374723946 0  0.9350285939903868 0.06406852472525566 0  0.453125 0 0  0.4433265752246126 0.01710378970181546 0  0.328125 0 0  0.3183265752246126 0.01710378970181546 0  0.578125 0 0  0.5683265752246126 0.01710378970181545 0  0.828125 0 0  0.8183265752246126 0.01710378970181545 0  0.515625 0 0  0.5058265752246126 0.01710378970181545 0  0.390625 0 0  0.3808265752246126 0.01710378970181545 0  0.01564771141956889 0.08260299286276945 0  0.9843522885804311 0.01739700713723054 0  0.3551736619148977 0.03733645281383641 0  0.4801736619148977 0.03733645281383641 0  0.8551736619148977 0.03733645281383642 0  0.7687346279121444 0.06091681090943113 0  0.2687346279121444 0.06091681090943113 0  0.6687653720878556 0.06091681090943113 0  0.1687653720878556 0.06091681090943113 0  0.6051736619148977 0.03733645281383642 0  0.2924478939734164 0.03697522410746614 0  0.7924478939734163 0.03697522410746614 0  0.8719142286486647 0.04906985056606887 0  0.6274213820068905 0.04848945596065109 0  0.4983341418505795 0.04892020701904073 0  0.3733341418505795 0.04892020701904073 0  0.3108341418505795 0.04892020701904073 0  0.8108341418505794 0.04892020701904073 0  0.6242024164762008 0.01640567476785111 0  0.3848561971730207 0.08410836408489761 0  0.5098561971730207 0.08410836408489761 0  0.2598561971730207 0.01589163591510238 0  0.7598561971730207 0.01589163591510238 0  0.890625 0.1 0  0.9582054159658413 0.03874795528975266 0  0.03565822065430611 0.08308352918541601 0  0.9643417793456939 0.016916470814584 0  0 0.0625 0  0.0168287001921521 0.05388159890776699 0  0.0417945840341587 0.06125204471024735 0  0.9831712998078479 0.04611840109223304 0  0.5622607296296599 0.08116332765030569 0  0.4372607296296599 0.08116332765030566 0  0.046875 0.1 0  0.953125 0 0  0.415919189453125 0.03668247284720479 0  0.540919189453125 0.03668247284720479 0  0.0859375 0.01393925506164327 0  0.109375 0.1 0  0.1338555271916189 0.05216484236021472 0  0.953125 0.1 0  0.140625 0 0  0.640625 0 0  0.546875 0.1 0  0.421875 0.1 0  0.203125 0 0  0.703125 0 0  0.046875 0 0  0.234375 0.1 0  0.734375 0.1 0  0.078125 0.1 0  0.921875 0 0  0.921875 0.1 0  0.828125 0.1 0  0.328125 0.1 0  0.453125 0.1 0  0.578125 0.1 0  0.640625 0.1 0  0.140625 0.1 0  0.984375 0.1 0  0.765625 0.1 0  0.265625 0.1 0  0.109375 0 0  0.203125 0.1 0  0.703125 0.1 0  0.234375 0 0  0.734375 0 0  0.609375 0.1 0  0.484375 0.1 0  0.359375 0.1 0  0.859375 0.1 0  0.03162846341645094 0.04971906156616034 0  0.9677597279973049 0.05078312969016881 0  0.8125319459969864 0.08431483734279674 0  0.3125319459969864 0.08431483734279674 0  0.01533347852251798 0.02378565849770013
[...]
<PointData  Vectors="damage"> 
<DataArray  type="Float64"  Name="damage"  NumberOfComponents="3" format="ascii">0.0000000000000000e+00 0.0000000000000000e+00 0.0000000000000000e+00  0.0000000000000000e+00 0.0000000000000000e+00 0.0000000000000000e+00  4.1079232892079270e-01 0.0000000000000000e+00 0.0000000000000000e+00  4.1079232892079276e-01 0.0000000000000000e+00 0.0000000000000000e+00  3.9604814318358773e-04 2.9383596374476059e-04 0.0000000000000000e+00  1.6533819947103274e-04 -1.5015884251492968e-04 0.0000000000000000e+00  2.0746250377473645e-05 -1.9067358240595438e-05 0.0000000000000000e+00  3.3000444361438056e-05 -2.2310697928533009e-05 0.0000000000000000e+00  4.1078627510926125e-01 5.6130460139202260e-05 0.0000000000000000e+00  4.1074463478632028e-01 5.9384905579161808e-05 0.0000000000000000e+00  4.6257584632869759e-05 -3.8294563436157759e-05 0.0000000000000000e+00  3.4653854672456426e-05 -3.5281066196834699e-05 0.0000000000000000e+00  9.1689194170243759e-06 -4.9852088765776533e-06 0.0000000000000000e+00  1.7542502662664153e-05 -8.2536560793003442e-06 0.0000000000000000e+00  4.1072390657534552e-01 1.2132962317104548e-04 0.0000000000000000e+00  4.1077972320182116e-01 1.1834615486670813e-04 0.0000000000000000e+00  4.1079052055194698e-01 1.4494638630981184e-05 0.0000000000000000e+00  4.1076742796853921e-01 1.7730658432933865e-05 0.0000000000000000e+00  4.1078336556301376e-01 8.4996046033125836e-05 0.0000000000000000e+00  4.1073405083124448e-01 8.8197975579504018e-05 0.0000000000000000e+00  4.1071100033701879e-01 1.6045730250724026e-04 0.0000000000000000e+00  4.1077291354487117e-01 1.5383712409941018e-04 0.0000000000000000e+00  9.0692807086536524e-06 -3.7293251745773953e-06 0.0000000000000000e+00  4.2965305458799838e-06 -4.9220479802220122e-07 0.0000000000000000e+00  2.5553015466606830e-05 -1.4679659591818241e-05 0.0000000000000000e+00  1.4677522038746714e-05 -1.1428103115864373e-05 0.0000000000000000e+00  2.7376368283313771e-05 -2.7221607432326985e-05 0.0000000000000000e+00  3.9874922666521397e-05 -3.0448497712577035e-05 0.0000000000000000e+00  5.4026808923882720e-05 -4.6260260377627710e-05 0.0000000000000000e+00  4.4984360169909808e-05 -4.1196517573337592e-05 0.0000000000000000e+00  4.1075576611103043e-01 3.5649775381247067e-05 0.0000000000000000e+00  4.1078868257218815e-01 3.2407346129185369e-05 0.0000000000000000e+00  4.1079168944267225e-01 3.0964110632270651e-06 0.0000000000000000e+00  4.1077959191797331e-01 6.3482117893726987e-06 0.0000000000000000e+00  4.1077558994122310e-01 2.3700194358204169e-05 0.0000000000000000e+00  4.1076883045609397e-01 4.4653311784956388e-05 0.0000000000000000e+00  3.6998044571982336e-05 -3.2930593187292544e-05 0.0000000000000000e+00  3.0255134883329448e-05 -2.4726795082909341e-05 0.0000000000000000e+00  1.6740845135387633e-05 -9.4895006420306397e-06 0.0000000000000000e+00  2.3493168243446071e-05 -1.6679846219144667e-05 0.0000000000000000e+00  0.0000000000000000e+00 0.0000000000000000e+00 0.0000000000000000e+00  9.9592330625733678e-06 -3.8630980235185295e-06 0.0000000000000000e+00  4.3376600431657986e-05 -4.0585421520508323e-05 0.0000000000000000e+00  5.3313596666675482e-05 -4.7746869387521534e-05 0.0000000000000000e+00  4.1073553481307890e-01 1.7629246705592403e-04 0.0000000000000000e+00  4.1074900565856909e-01 1.3760643902983446e-04 0.0000000000000000e+00  4.1075533931093561e-01 1.0231344651531505e-04 0.0000000000000000e+00  4.1076208475007198e-01 7.1122534147877392e-05 0.0000000000000000e+00  4.1078236126962747e-01 8.9063315817368762e-06 0.0000000000000000e+00  4.1079232892079270e-01 0.0000000000000000e+00 0.0000000000000000e+00  4.6370698465348837e-06 -9.3554864561401275e-07 0.0000000000000000e+00  4.1078798412996170e-01 2.0972498145096162e-06 0.0000000000000000e+00  4.1078571031214495e-01 3.0568777698271980e-06 0.0000000000000000e+00  4.7552881048992933e-06 -2.1554603847366690e-06 0.0000000000000000e+00  2.2257984201587354e-06 5.9721988358578702e-07 0.0000000000000000e+00  4.1079195804893159e-01 3.2952907537957446e-07 0.0000000000000000e+00  4.1079232892079270e-01 0.0000000000000000e+00 0.0000000000000000e+00  4.1078246243393096e-01 1.5039323250997532e-05 0.0000000000000000e+00  4.1077451924705438e-01 1.6969874855089278e-05 0.0000000000000000e+00  4.1076150829534269e-01 2.5968599833731845e-05 0.0000000000000000e+00  4.1079117081961780e-01 7.8995445468907677e-06 0.0000000000000000e+00  4.1076050032497480e-01 1.1912000178603505e-04 0.0000000000000000e+00  4.1074196166712329e-01 1.2194991241862222e-04 0.0000000000000000e+00  4.1071847160229136e-01 1.3961292385717661e-04 0.0000000000000000e+00  4.1075121755567590e-01 8.6697396652297433e-05 0.0000000000000000e+00  4.1076692610153698e-01 8.7392854951508982e-05 0.0000000000000000e+00  4.1078165774946551e-01 1.0113846846632843e-04 0.0000000000000000e+00  4.1073927887050932e-01 7.3177192516607671e-05 0.0000000000000000e+00  4.1075436734202897e-01 1.5563183284518679e-04 0.0000000000000000e+00  4.1073357442085490e-01 1.6021476257734794e-04 0.0000000000000000e+00  4.1069308365291884e-01 1.9201685812837786e-04 0.0000000000000000e+00  4.1072898846083705e-01 1.0428476914595020e-04 0.0000000000000000e+00  4.1077725994168257e-01 1.3628011386463987e-04 0.0000000000000000e+00  1.1876465537777945e-04 -5.9994631149004190e-05 0.0000000000000000e+00  1.8482974745504739e-04 -3.5296547449374233e-05 0.0000000000000000e+00  6.1517389816237477e-05 -3.4259799420994176e-05 0.0000000000000000e+00  4.1075815368752838e-01 1.6472113168695702e-04 0.0000000000000000e+00  4.8318072960176739e-05 -4.4701460655859078e-05 0.0000000000000000e+00  4.4935685738831776e-05 -4.2870002793881508e-05 0.0000000000000000e+00  3.8838390256795199e-05 -3.8938454063952289e-05 0.0000000000000000e+00  6.4213210305457039e-05 -5.4418349473258546e-05 0.0000000000000000e+00  4.2061213827276919e-05 -3.7282465790262006e-05 0.0000000000000000e+00  3.7970483911479509e-05 -3.5944056223513082e-05 0.0000000000000000e+00  3.0904024521041353e-05 -3.1292624235982483e-05 0.0000000000000000e+00  4.9565078222127029e-05 -4.1964825160480993e-05 0.0000000000000000e+00  6.6511505605253698e-06 -2.4430687538819900e-06 0.0000000000000000e+00  1.3338858944719311e-05 -5.7269378408957985e-06 0.0000000000000000e+00  1.4596253108391958e-05 -6.9563507498821551e-06 0.0000000000000000e+00  1.1600041464210547e-05 -5.5859858635137590e-06 0.0000000000000000e+00  1.8498879447721507e-05 -1.2451116320213601e-05 0.0000000000000000e+00  2.1569305291910966e-05 -1.3118588317004844e-05 0.0000000000000000e+00  2.1619743115417699e-05 -1.1259798556831077e-05 0.0000000000000000e+00  1.7640218927605547e-05 -1.5137661911879930e-05 0.0000000000000000e+00  1.1845946761753286e-05 -8.0213557075373775e-06 0.0000000000000000e+00  3.6507520914802865e-05 -2.6362532555669732e-05 0.0000000000000000e+00  3.5500842030431406e-05 -2.9341401200359033e-05 0.0000000000000000e+00  3.1128211762320499e-05 -2.7838293954836624e-05 0.0000000000000000e+00  2.3992386040084719e-05 -2.3121259019866910e-05 0.0000000000000000e+00  2.5044677721528900e-05 -2.0149920562438723e-05 0.0000000000000000e+00  2.9342469994769308e-05 -2.1654777512351505e-05 0.0000000000000000e+00  2.9339129903524554e-05 -1.8386035671715951e-05 0.0000000000000000e+00  4.3101716193274397e-05 -3.4463378503940388e-05 0.0000000000000000e+00  4.1078757168383123e-01 4.3566729998106969e-05 0.0000000000000000e+00  4.1077718520333939e-01 3.3041795270215164e-05 0.0000000000000000e+00  4.1076605730966553e-01 3.5288932981376128e-05 0.0000000000000000e+00  4.1075010331068679e-01 4.6819476396941203e-05 0.0000000000000000e+00  4.1075915470233543e-01 5.7793793500396677e-05 0.0000000000000000e+00  4.1077293207911192e-01 5.5305034157402282e-05 0.0000000000000000e+00  4.1078490907121074e-01 6.9940014841616378e-05 0.0000000000000000e+00  4.1077348874196873e-01 1.1198118253205153e-05 0.0000000000000000e+00  4.1078963549574538e-01 2.2643773819772253e-05 0.0000000000000000e+00  4.1078886009345839e-01 1.1242579578056779e-06 0.0000000000000000e+00  4.1078771329588304e-01 5.5644959210952063e-06 0.0000000000000000e+00  0.0000000000000000e+00 0.0000000000000000e+00 0.0000000000000000e+00  2.9540015675583542e-06 -8.0961799623083162e-07 0.0000000000000000e+00  6.5459121785261957e-06 -1.7596167250911885e-06 0.0000000000000000e+00  4.1078036321658762e-01 7.2090146912635136e-06 0.0000000000000000e+00  9.6709578683747929e-06 -3.6784562186425908e-06 0.0000000000000000e+00  4.1078439880324202e-01 3.7218758481852799e-06 0.0000000000000000e+00  6.3661955896219171e-06 -2.1795176298183795e-06 0.0000000000000000e+00  4.1077676571697413e-01 1.1710120716585426e-05 0.0000000000000000e+00  1.9935004361788429e-06 -3.9269075703876352e-08 0.0000000000000000e+00  4.1079064874187421e-01 2.2818751407698999e-07 0.0000000000000000e+00  4.1075169826791552e-01 6.8763536809309276e-05 0.0000000000000000e+00  4.1076725117690965e-01 2.7369314302889814e-05 0.0000000000000000e+00  2.1357496102029519e-05 -1.6776577125296236e-05 0.0000000000000000e+00  3.2989000949862969e-05 -3.0944831825238844e-05 0.0000000000000000e+00  1.9561753427003493e-05 -1.0725286609405547e-05 0.0000000000000000e+00  4.5637065462925848e-05 -4.0369268301429853e-05 0.0000000000000000e+00  4.9543399639620526e-05 -4.2934576492773711e-05 0.0000000000000000e+00  4.1074638968166888e-01 1.7398381263812878e-04 0.0000000000000000e+00  4.1073283045975256e-01 1.4398915003448071e-04 0.0000000000000000e+00  4.1076875069045726e-01 9.9666056910053958e-05 0.0000000000000000e+00  3.2925325956632292e-05 -2.5053987942924177e-05 0.0000000000000000e+00  4.1077787600758020e-01 4.5427280414349290e-05 0.0000000000000000e+00  0.0000000000000000e+00 0.0000000000000000e+00 0.0000000000000000e+00  4.1079232892079270e-01 0.0000000000000000e+00 0.0000000000000000e+00  4.1078304941303762e-01 2.1009831154531273e-05 0.0000000000000000e+00  4.1075848691786915e-01 4.8369927016638512e-05 0.0000000000000000e+00  4.0754282518829880e-05 -3.4597242227307468e-05 0.0000000000000000e+00  2.6411888847210402e-05 -2.2978533650152418e-05 0.0000000000000000e+00  3.9996821295297038e-05 -3.8845713221096357e-05 0.0000000000000000e+00  5.7865879637275131e-05 -5.4286171687783532e-05 0.0000000000000000e+00  4.1070273737217233e-01 1.9506707861431725e-04 0.0000000000000000e+00  4.1076384535066096e-01 1.3277402701780683e-04 0.0000000000000000e+00  4.1074316219360124e-01 9.9406714097874260e-05 0.0000000000000000e+00  1.5048786591447592e-05 -9.4728680857364423e-06 0.0000000000000000e+00  2.5326839275410668e-05 -1.6387049356297828e-05 0.0000000000000000e+00  4.1077270349150413e-01 7.4713512125702727e-05 0.0000000000000000e+00  8.6983842758896584e-06 -3.3687023112177320e-06 0.0000000000000000e+00  1.2862710121255733e-05 -5.5103811518850246e-06 0.0000000000000000e+00  4.1078648264080325e-01 9.9516469296088075e-06 0.0000000000000000e+00  4.1077697861812784e-01 6.3760448144653425e-05 0.0000000000000000e+00  2.8658386980634659e-05 -1.9494257226019886e-05 0.0000000000000000e+00  4.1302854985513911e-06 -3.8919686725179847e-07 0.0000000000000000e+00  4.1078469555051023e-01 5.0458028271540645e-06 0.0000000000000000e+00  4.1078946309564690e-01 2.4155995977527801e-06 0.0000000000000000e+00  7.4568924994739316e-06 -2.3497158704824288e-06 0.0000000000000000e+00  4.1074494167377668e-01 7.9736081471934285e-05 0.0000000000000000e+00  1.8158701235040183e-05 -1.3757511643611651e-05 0.0000000000000000e+00  4.1078382070731123e-01 2.7583159124940587e-05 0.0000000000000000e+00  3.9310843053535295e-05 -3.1928956509184605e-05 0.0000000000000000e+00  4.8869938775256421e-05 -4.3212323699397465e-05 0.0000000000000000e+00  5.3441773235341233e-05 -4.8188197359463136e-05 0.0000000000000000e+00  4.1076080620070793e-01 1.6317096882018616e-04 0.0000000000000000e+00  4.1076591009097840e-01 1.4586355107183122e-04 0.0000000000000000e+00  4.1073634559551092e-01 1.1192022412481150e-04 0.0000000000000000e+00  1.2189102308373023e-05 -6.9291751967256640e-06 0.0000000000000000e+00  4.1078816160360487e-01 3.7818958250490848e-05 0.0000000000000000e+00  3.8209251319207015e-05 -2.8410116932037855e-05 0.0000000000000000e+00  4.1077113192469145e-01 1.1089069396886369e-04 0.0000000000000000e+00  1.7764383428946276e-05 -8.8868929023423143e-06 0.0000000000000000e+00  4.1075291280779458e-01 4.1041324355749293e-05 0.0000000000000000e+00  2.5665536063487473e-05 -2.5170505793722627e-05 0.0000000000000000e+00  3.2739032776009974e-05 -3.3308215711527349e-05 0.0000000000000000e+00  4.1476732819104173e-05 -4.0428145497459390e-05 0.0000000000000000e+00  9.1151959915340176e-05 -1.2966465235594182e-05 0.0000000000000000e+00  4.1070430468664521e-01 1.7372806928052023e-04 0.0000000000000000e+00  4.1072130993803291e-01 1.3027007267210698e-04 0.0000000000000000e+00  4.1076445443266607e-01 2.1632680899626828e-05 0.0000000000000000e+00  4.1078878617172587e-01 1.7502943845824211e-06 0.0000000000000000e+00  1.2131260430022211e-06 6.5735559874229819e-07 0.0000000000000000e+00  4.1079156822412705e-01 -7.5872100642008554e-08 0.0000000000000000e+00  2.5201765295898991e-06 -1.3046358993991978e-06 0.0000000000000000e+00  1.3973321105891905e-05 -7.5228371664026173e-06 0.0000000000000000e+00  4.1077131724731780e-01 2.9371591121537370e-05 0.0000000000000000e+00  3.4152721732840573e-05 -3.0365634750443906e-05 0.0000000000000000e+00  4.8057383986909229e-05 -4.4757104706979807e-05 0.0000000000000000e+00  4.1074250717896826e-01 1.4868749689487821e-04 0.0000000000000000e+00  4.1076530262148075e-01 6.1807366817383312e-05 0.0000000000000000e+00  2.5995743402325244e-05 -1.9336436966136600e-05 0.0000000000000000e+00  2.1539279672887329e-05 -1.4269963806719069e-05 0.0000000000000000e+00  4.0806714775925441e-05 -3.8285315112741561e-05 0.0000000000000000e+00  4.1067151428769477e-01 1.9862681833757623e-04 0.0000000000000000e+00  4.1076099690834805e-01 8.0788022294643656e-05 0.0000000000000000e+00  4.1074712893710624e-01 1.1116392746054568e-04 0.0000000000000000e+00  4.1077909405621482e-01 1.2845018336628417e-05 0.0000000000000000e+00  2.4194915290472733e-06 1.9951224549898934e-07 0.0000000000000000e+00  3.5664048694918306e-05 -2.7842423365503783e-05 0.0000000000000000e+00  4.1078089527226236e-01 3.7851564634858875e-05 0.0000000000000000e+00  4.1073267882058229e-01 1.3201359811348905e-04 0.0000000000000000e+00  4.1076900017648765e-01 2.1791140325357239e-05 0.0000000000000000e+00  4.2001512540944426e-05 -4.0923535450800636e-05 0.0000000000000000e+00  4.1072008916861946e-01 1.7450559511608376e-04 0.0000000000000000e+00  6.0763223957695407e-05 -3.6130780796468030e-05 0.0000000000000000e+00  3.4684621563954713e-05 -3.3420659850515369e-05 0.0000000000000000e+00  4.1078056380450045e-01 5.1734890777916357e-05 0.0000000000000000e+00  3.2330999969367263e-05 -2.3241439289342197e-05 0.0000000000000000e+00  4.1078252232943629e-01 9.2919523377281532e-05 0.0000000000000000e+00  2.3604517787124801e-05 -1.2922414322767559e-05 0.0000000000000000e+00  9.4857143081199910e-06 -4.4143762852721685e-06 0.0000000000000000e+00  1.6687843677222666e-05 -8.7182562214839560e-06 0.0000000000000000e+00  4.1076173528301718e-01 1.0861891466489379e-04 0.0000000000000000e+00  4.1075372224465534e-01 7.5692302881094371e-05 0.0000000000000000e+00  2.0777454645072300e-05 -1.5125915684556410e-05 0.0000000000000000e+00  3.7364180153254798e-05 -3.1753960601302487e-05 0.0000000000000000e+00  4.1077843403550013e-01 2.7023687244611495e-05 0.0000000000000000e+00  5.0944911057072786e-05 -4.7527540116507442e-05 0.0000000000000000e+00  4.1075588955889758e-01 1.4461254265643632e-04 0.0000000000000000e+00  4.1079075910242141e-01 7.8223489738166665e-07 0.0000000000000000e+00  4.1075943175744711e-01 4.1275309009365148e-05 0.0000000000000000e+00  2.7846026186487075e-05 -2.5373265441907301e-05 0.0000000000000000e+00  5.4468916768094088e-06 -1.3865940702725865e-06 0.0000000000000000e+00  4.5956808300223085e-05 -4.1894714165716239e-05 0.0000000000000000e+00  4.1074969932857353e-01 1.6850196970673417e-04 0.0000000000000000e+00  4.1077397938221955e-01 9.1278530729065218e-05 0.0000000000000000e+00  2.2235266167578107e-05 -1.2714358192901970e-05 0.0000000000000000e+00  2.4291900908862114e-05 -1.4725894151548088e-05 0.0000000000000000e+00  4.1077508276241526e-01 8.2346337400180712e-05 0.0000000000000000e+00  4.1077442907124828e-01 3.9265513410627344e-05 0.0000000000000000e+00  3.3166187169502391e-05 -2.6907824858332766e-05 0.0000000000000000e+00  4.5285192158692615e-05 -4.2725593126172609e-05 0.0000000000000000e+00  4.1074304218785729e-01 1.6411276964934057e-04 0.0000000000000000e+00  1.6438030298028186e-05 -1.1713202434691036e-05 0.0000000000000000e+00  4.1074239262846712e-01 8.8323249182786439e-05 0.0000000000000000e+00  4.1075571777342212e-01 1.2868000503057431e-04 0.0000000000000000e+00  6.0480113610224829e-05 -5.2594513366035959e-05 0.0000000000000000e+00  3.9669897964293860e-05 -3.5093960889239180e-05 0.0000000000000000e+00  4.1077956277522859e-01 1.9310221563911613e-05 0.0000000000000000e+00  2.2203881896615207e-05 -1.8707661916682498e-05 0.0000000000000000e+00  4.1075084811272411e-01 6.1524313159499623e-05 0.0000000000000000e+00  1.2059738907316682e-05 -5.3980056040877274e-06 0.0000000000000000e+00  1.7405744005737837e-05 -1.0784452737651078e-05 0.0000000000000000e+00  4.1075219765847054e-01 9.4842302065934668e-05 0.0000000000000000e+00  2.7524030489723833e-05 -2.2478369171577877e-05 0.0000000000000000e+00  4.1076358306356298e-01 5.0785469311610945e-05 0.0000000000000000e+00  1.5430699366514834e-05 -7.1516410371510268e-06 0.0000000000000000e+00  4.1076950148238756e-01 1.2270681881860451e-04 0.0000000000000000e+00  7.6652135002046635e-05 -7.0742625554011499e-05 0.0000000000000000e+00  4.3440430265404717e-05 -3.6929252410449812e-05 0.0000000000000000e+00  4.1078605360735804e-01 1.6408461882942920e-05 0.0000000000000000e+00  4.1069908839343339e-01 1.3242922760614895e-04 0.0000000000000000e+00  4.7867608208383160e-05 -4.0132203390688746e-05 0.0000000000000000e+00  2.2354398205312694e-05 -2.1082475414990821e-05 0.0000000000000000e+00  4.1074734338909397e-01 5.2929082676942137e-05 0.0000000000000000e+00  4.1071812931904378e-01 1.8293417320438095e-04 0.0000000000000000e+00  4.3008824103390325e-05 -3.9079073115404664e-05 0.0000000000000000e+00  4.1078290782637550e-01 1.1281252735389399e-05 0.0000000000000000e+00  1.3253113035966810e-05 -9.6759044739526059e-06 0.0000000000000000e+00  4.1073148307329005e-01 9.6098433322689756e-05 0.0000000000000000e+00  4.1077043770545185e-01 1.4246709370071901e-05 0.0000000000000000e+00  4.1077241827679584e-01 1.5463391942881194e-05 0.0000000000000000e+00  2.6130267399453703e-05 -1.8241981756839165e-05 0.0000000000000000e+00  4.1076946190146191e-01 6.6704253677610090e-05 0.0000000000000000e+00  4.1078723360245650e-01 3.9103855826314955e-06 0.0000000000000000e+00  5.0571066365498723e-05 -4.0247134615128854e-05 0.0000000000000000e+00  4.5985085354616076e-05 -4.2539504086863052e-05 0.0000000000000000e+00  2.9119843447988776e-05 -2.9264145765448194e-05 0.0000000000000000e+00  3.0212787983997075e-05 -2.8552317075364185e-05 0.0000000000000000e+00  4.1071515785812640e-01 1.4969232401240048e-04 0.0000000000000000e+00  4.1072493989530851e-01 1.5493997858865514e-04 0.0000000000000000e+00  4.1075860267275283e-01 3.0656350123517695e-05 0.0000000000000000e+00  4.1076234650793747e-01 3.2846772934726399e-05 0.0000000000000000e+00  4.1066185174168862e-01 2.2595199970491163e-04 0.0000000000000000e+00  4.1053552978239621e-01 1.8770100317316431e-04 0.0000000000000000e+00  3.6656108224149243e-05 -3.7163618133905928e-05 0.0000000000000000e+00  3.7327604247958557e-05 -3.6617371602585127e-05 0.0000000000000000e+00  1.9462474816371469e-06 -7.1220051364755933e-07 0.0000000000000000e+00  4.1078986141665452e-01 8.2573225665269564e-07 0.0000000000000000e+00  3.6729903910943267e-05 -3.4009548594955046e-05 0.0000000000000000e+00  6.1094996159200885e-05 -4.4860509606071230e-05 0.0000000000000000e+00  4.1077351352474378e-01 2.0976462361149472e-05 0.0000000000000000e+00  4.10771727066