<?xml version="1.0"?>
<VTKFile type="UnstructuredGrid"  version="0.1"  >
<UnstructuredGrid>
<Piece  NumberOfPoints="820" NumberOfCells="1464">
<Points>
<DataArray  type="Float64"  NumberOfComponents="3"  format="ascii">0 0.1 0  0 0 0  1 0 0  1 0.1 0  0.5 0 0  0.5 0.1 0  0.25 0 0  0.25 0.1 0  0.75 0.1 0  0.75 0 0  0.375 0.1 0  0.375 0 0  0.125 0 0  0.125 0.1 0  0.625 0 0  0.625 0.1 0  0.875 0.1 0  0.875 0 0  0.6875 0.1 0  0.6875 0 0  0.5625 0 0  0.5625 0.1 0  0.0625 0.1 0  0.0625 0 0  0.1875 0.1 0  0.1875 0 0  0.3125 0 0  0.3125 0.1 0  0.4375 0.1 0  0.4375 0 0  0.8125 0 0  0.8125 0.1 0  0.9375 0.1 0  0.9375 0 0  0.84375 0.05000000000000001 0  0.78125 0.05 0  0.34375 0.05000000000000001 0  0.28125 0.05 0  0.15625 0.05 0  0.21875 0.05000000000000001 0  0 0.05 0  0.09375 0.05000000000000001 0  0.40625 0.05 0  0.46875 0.05000000000000001 0  0.53125 0.05 0  0.59375 0.05000000000000001 0  0.65625 0.05 0  0.71875 0.05000000000000001 0  0.90625 0.05 0  1 0.05 0  0.046875 0.04453125000000001 0  0.953125 0.05546875 0  0.96875 0 0  0.03125 0.1 0  0.03125 0 0  0.96875 0.1 0  1 0.07500000000000001 0  0.875 0.06523437500000001 0  0.8715625 0.03261718750000001 0  0.84375 0 0  0.90625 0.1 0  0.625 0.06523437500000001 0  0.6215625 0.03261718750000001 0  0.59375 0 0  0.6875 0.034765625 0  0.6840625 0.0673828125 0  0.65625 0.1 0  0.71875 0 0  0.5625 0.06523437500000001 0  0.5590625 0.03261718750000001 0  0.53125 0 0  0.65625 0 0  0.59375 0.1 0  0.5 0.06523437500000001 0  0.4965625 0.03261718750000001 0  0.46875 0 0  0.53125 0.1 0  0.4375 0.06523437500000001 0  0.4340625 0.03261718750000001 0  0.40625 0 0  0.46875 0.1 0  0.375 0.06523437500000001 0  0.3715625 0.03261718750000001 0  0.34375 0 0  0.40625 0.1 0  0.09375 0 0  0.09375 0.1 0  0.125 0.06523437500000001 0  0.1215625 0.03261718750000001 0  0.1875 0.034765625 0  0.1840625 0.0673828125 0  0.15625 0.1 0  0.21875 0 0  0.15625 0 0  0.28125 0.1 0  0.3125 0.06523437500000001 0  0.3090625 0.03261718750000001 0  0.28125 0 0  0.25 0.034765625 0  0.2534375 0.0673828125 0  0.21875 0.1 0  0.34375 0.1 0  0.78125 0.1 0  0.8125 0.06523437500000001 0  0.8090625 0.03261718750000001 0  0.78125 0 0  0.75 0.034765625 0  0.7534375 0.0673828125 0  0.71875 0.1 0  0.90625 0 0  0.84375 0.1 0  0.9740776699029127 0.03143583131067961 0  0.921875 0.075 0  0 0.025 0  0.02592233009708738 0.06856416868932039 0  0.0725 0.028515625 0  0.921875 0.025 0  0.078125 0.07500000000000001 0  0.9484670937186905 0.0242372460741816 0  0.05153290628130947 0.07576275392581842 0  0.8963594872172794 0.02643561701079966 0  0.02229817708333334 0.0375 0  0.9777018229166666 0.06250000000000001 0  0.72590087890625 0.025 0  0.8345789124085022 0.025 0  0.22590087890625 0.025 0  0.3345789124085023 0.025 0  0.15996337890625 0.075 0  0.39909912109375 0.075 0  0.4595789124085023 0.025 0  0.52409912109375 0.075 0  0.5845789124085022 0.025 0  0.65996337890625 0.075 0  0.27753662109375 0.075 0  0.77753662109375 0.075 0  0 0.07500000000000001 0  1 0.025 0  0.85090087890625 0.07500000000000001 0  0.77409912109375 0.025 0  0.35090087890625 0.07500000000000001 0  0.27409912109375 0.025 0  0.3970789124085022 0.025 0  0.47590087890625 0.07500000000000001 0  0.5220789124085022 0.025 0  0.60090087890625 0.07500000000000001 0  0.66340087890625 0.025 0  0.16340087890625 0.025 0  0.2095789124085023 0.07500000000000001 0  0.7095789124085022 0.07500000000000001 0  0.0974991439537346 0.02496950333675565 0  0.1029665898617512 0.07685681883640554 0  0.8970334101382489 0.07685681883640554 0  0.7331321502083639 0.0805418246751822 0  0.2331321502083639 0.08054182467518221 0  0.04967773437499999 0.02050781250000001 0  0.9302821601941748 0.04763728762135922 0  0.9453125 0.07773437499999999 0  0.06981448887637284 0.05242311804773303 0  0.703125 0.0173828125 0  0.203125 0.0173828125 0  0.828125 0.08261718750000001 0  0.328125 0.08261718750000001 0  0.4213608787615672 0.08215505604972331 0  0.453125 0.08261718750000001 0  0.5463608787615671 0.08215505604972331 0  0.578125 0.08261718750000001 0  0.6405370048634059 0.0181271643224308 0  0.1405370048634059 0.0181271643224308 0  0.796875 0.1 0  0.296875 0.1 0  0.6389903131525874 0.08261718750000001 0  0.1389903131525873 0.08261718750000001 0  0.796875 0 0  0.296875 0 0  0.359375 0 0  0.421875 0 0  0.484375 0 0  0.546875 0 0  0.609375 0 0  0.859375 0 0  0.984375 0 0  0.015625 0 0  0.9808265015870887 0.08306437698386088 0  0.015625 0.1 0  0.140615310157384 0.03789815460447876 0  0.8258710430305984 0.04237660226422156 0  0.3258710430305984 0.04237660226422154 0  0.4508710430305984 0.04237660226422154 0  0.5758710430305984 0.04237660226422156 0  0.73925254007477 0.05238802290978471 0  0.23925254007477 0.05238802290978471 0  0.19824745992523 0.05238802290978471 0  0.3883710430305984 0.04237660226422155 0  0.5133710430305984 0.04237660226422155 0  0.69824745992523 0.05238802290978471 0  0.6406153101573839 0.03789815460447876 0  0.8875652355519991 0.04398459561477483 0  0.03011990291140283 0.01954869700666445 0  0.2976228417042103 0.07944206017604956 0  0.7976228417042103 0.07944206017604956 0  0.6048261925064409 0.0202852140350185 0  0.8548261925064409 0.0202852140350185 0  0.4173261925064409 0.02028521403501849 0  0.5423261925064409 0.02028521403501849 0  0.479826192506441 0.02028521403501848 0  0.354826192506441 0.02028521403501848 0  0.7612196085333947 0.08469269433495656 0  0.2612196085333947 0.08469269433495656 0  0.671875 0.1 0  0.171875 0.1 0  0.1138156987561534 0.01531102667280419 0  0.1439032206506398 0.06434174268079966 0  0.6439032206506399 0.06434174268079966 0  0.7102169938849521 0.03403655887996306 0  0.2102169938849521 0.03403655887996306 0  0.331272668838501 0.06407394409179688 0  0.8312726688385009 0.06407394409179688 0  0.456272668838501 0.06407394409179688 0  0.5812726688385009 0.06407394409179688 0  0.9626931005513372 0.08290734481438196 0  0.7935362330470901 0.01983307912641665 0  0.2935362330470901 0.01983307912641665 0  0.078125 0 0  0.4143262322415116 0.06583278773374907 0  0.5393262322415115 0.06583278773374907 0  0.6756954193768612 0.08284197013692297 0  0.1756954193768612 0.08284197013692297 0  0.1934564775596677 0.08246105735569852 0  0.6934564775596677 0.0824610573556985 0  0.7948904737904949 0.06168801049385652 0  0.2948904737904949 0.06168801049385652 0  0.42558837890625 0.05 0  0.55058837890625 0.05 0  0.185643310546875 0.0173828125 0  0.685643310546875 0.0173828125 0  0.6085613945093048 0.05928612183988766 0  0.4835613945093048 0.05928612183988766 0  0.3585613945093048 0.05928612183988766 0  0.8585613945093048 0.05928612183988766 0  0.2430157823768409 0.0173828125 0  0.743015782376841 0.0173828125 0  0.11308837890625 0.05 0  0.1710613945093048 0.04071387816011236 0  0.6710613945093048 0.04071387816011236 0  0.2664386054906952 0.04071387816011236 0  0.7664386054906952 0.04071387816011236 0  0.1200872144236349 0.08261718750000001 0  0.618015782376841 0.08261718750000001 0  0.4930157823768409 0.08261718750000001 0  0.3680157823768409 0.08261718750000001 0  0.868015782376841 0.08261718750000001 0  0.515625 0.1 0  0.390625 0.1 0  0.265625 0 0  0.765625 0 0  0.516365031953596 0.05946768293606444 0  0.3913650319535959 0.05946768293606444 0  0.8926135952226929 0.06033018746614476 0  0.171875 0 0  0.671875 0 0  0.890625 0 0  0.8808652108632187 0.0171078614816925 0  0.2274441083295474 0.06456313374723947 0  0.7274441083295474 0.06456313374723946 0  0.9350285939903868 0.06406852472525566 0  0.453125 0 0  0.4433265752246126 0.01710378970181546 0  0.328125 0 0  0.3183265752246126 0.01710378970181546 0  0.578125 0 0  0.5683265752246126 0.01710378970181545 0  0.828125 0 0  0.8183265752246126 0.01710378970181545 0  0.515625 0 0  0.5058265752246126 0.01710378970181545 0  0.390625 0 0  0.3808265752246126 0.01710378970181545 0  0.01564771141956889 0.08260299286276945 0  0.9843522885804311 0.01739700713723054 0  0.3551736619148977 0.03733645281383641 0  0.4801736619148977 0.03733645281383641 0  0.8551736619148977 0.03733645281383642 0  0.7687346279121444 0.06091681090943113 0  0.2687346279121444 0.06091681090943113 0  0.6687653720878556 0.06091681090943113 0  0.1687653720878556 0.06091681090943113 0  0.6051736619148977 0.03733645281383642 0  0.2924478939734164 0.03697522410746614 0  0.7924478939734163 0.03697522410746614 0  0.8719142286486647 0.04906985056606887 0  0.6274213820068905 0.04848945596065109 0  0.4983341418505795 0.04892020701904073 0  0.3733341418505795 0.04892020701904073 0  0.3108341418505795 0.04892020701904073 0  0.8108341418505794 0.04892020701904073 0  0.6242024164762008 0.01640567476785111 0  0.3848561971730207 0.08410836408489761 0  0.5098561971730207 0.08410836408489761 0  0.2598561971730207 0.01589163591510238 0  0.7598561971730207 0.01589163591510238 0  0.890625 0.1 0  0.9582054159658413 0.03874795528975266 0  0.03565822065430611 0.08308352918541601 0  0.9643417793456939 0.016916470814584 0  0 0.0625 0  0.0168287001921521 0.05388159890776699 0  0.0417945840341587 0.06125204471024735 0  0.9831712998078479 0.04611840109223304 0  0.5622607296296599 0.08116332765030569 0  0.4372607296296599 0.08116332765030566 0  0.046875 0.1 0  0.953125 0 0  0.415919189453125 0.03668247284720479 0  0.540919189453125 0.03668247284720479 0  0.0859375 0.01393925506164327 0  0.109375 0.1 0  0.1338555271916189 0.05216484236021472 0  0.953125 0.1 0  0.140625 0 0  0.640625 0 0  0.546875 0.1 0  0.421875 0.1 0  0.203125 0 0  0.703125 0 0  0.046875 0 0  0.234375 0.1 0  0.734375 0.1 0  0.078125 0.1 0  0.921875 0 0  0.921875 0.1 0  0.828125 0.1 0  0.328125 0.1 0  0.453125 0.1 0  0.578125 0.1 0  0.640625 0.1 0  0.140625 0.1 0  0.984375 0.1 0  0.765625 0.1 0  0.265625 0.1 0  0.109375 0 0  0.203125 0.1 0  0.703125 0.1 0  0.234375 0 0  0.734375 0 0  0.609375 0.1 0  0.484375 0.1 0  0.359375 0.1 0  0.859375 0.1 0  0.03162846341645094 0.04971906156616034 0  0.9677597279973049 0.05078312969016881 0  0.8125319459969864 0.08431483734279674 0  0.3125319459969864 0.08431483734279674 0  0.01533347852251798 0.02378565849770013
[...]
<PointData  Vectors="damage"> 
<DataArray  type="Float64"  Name="damage"  NumberOfComponents="3" format="ascii">0.0000000000000000e+00 0.0000000000000000e+00 0.0000000000000000e+00  0.0000000000000000e+00 0.0000000000000000e+00 0.0000000000000000e+00  2.6913980170672624e-01 0.0000000000000000e+00 0.0000000000000000e+00  2.6913980170672624e-01 0.0000000000000000e+00 0.0000000000000000e+00  1.3456316964295464e-01 4.1392688483996524e-03 0.0000000000000000e+00  1.3457513041621508e-01 -3.9581906355235915e-03 0.0000000000000000e+00  6.7096955020664470e-02 4.1429921831324518e-03 0.0000000000000000e+00  6.7083675036029744e-02 -3.9542546198690666e-03 0.0000000000000000e+00  2.0205691403438411e-01 -4.0008966213803208e-03 0.0000000000000000e+00  2.0203905993586524e-01 4.0963617741013774e-03 0.0000000000000000e+00  1.0083062468569086e-01 -3.9483830949720543e-03 0.0000000000000000e+00  1.0082887314651932e-01 4.1490803609483592e-03 0.0000000000000000e+00  3.3367822431892555e-02 4.1341321136111079e-03 0.0000000000000000e+00  3.3335137328250559e-02 -4.0009175768869849e-03 0.0000000000000000e+00  1.6829989306691759e-01 4.1197166164174360e-03 0.0000000000000000e+00  1.6831721257449925e-01 -3.9777452776411822e-03 0.0000000000000000e+00  2.3579392744600738e-01 -4.0412545431894572e-03 0.0000000000000000e+00  2.3577936363979152e-01 4.0949647993983457e-03 0.0000000000000000e+00  1.8518734347317412e-01 -3.9892799769649630e-03 0.0000000000000000e+00  1.8516914468308776e-01 4.1081661770002824e-03 0.0000000000000000e+00  1.5143122723658836e-01 4.1303315877056906e-03 0.0000000000000000e+00  1.5144647229894739e-01 -3.9671272924904511e-03 0.0000000000000000e+00  1.6679597449687857e-02 -3.9976988637057988e-03 0.0000000000000000e+00  1.6713774205434889e-02 4.0899329281341651e-03 0.0000000000000000e+00  5.0208037674145653e-02 -3.9657518622694130e-03 0.0000000000000000e+00  5.0230683668744655e-02 4.1327592865727540e-03 0.0000000000000000e+00  8.3962634583893483e-02 4.1484326067632695e-03 0.0000000000000000e+00  8.3957459761196548e-02 -3.9490146576215525e-03 0.0000000000000000e+00  1.1770317080986142e-01 -3.9516872017106774e-03 0.0000000000000000e+00  1.1769571804230687e-01 4.1457730024765460e-03 0.0000000000000000e+00  2.1891085733989940e-01 4.0857962502977071e-03 0.0000000000000000e+00  2.1892713448644810e-01 -4.0125694621080529e-03 0.0000000000000000e+00  2.5244592577540015e-01 -4.0320246422954707e-03 0.0000000000000000e+00  2.5242892314625182e-01 4.0606645872495557e-03 0.0000000000000000e+00  2.2735221009961704e-01 3.1312901447286819e-05 0.0000000000000000e+00  2.1048247025062566e-01 4.1954511472778876e-05 0.0000000000000000e+00  9.2394898287498597e-02 1.0099272084276591e-04 0.0000000000000000e+00  7.5525205224377029e-02 9.8190729903571943e-05 0.0000000000000000e+00  4.1785846968275975e-02 7.6817896296478598e-05 0.0000000000000000e+00  5.8655805163573251e-02 9.0259403923707298e-05 0.0000000000000000e+00  0.0000000000000000e+00 0.0000000000000000e+00 0.0000000000000000e+00  2.4862581278247978e-02 5.7697034432599221e-05 0.0000000000000000e+00  1.0926462004675827e-01 9.9481893057861811e-05 0.0000000000000000e+00  1.2613429933734918e-01 9.4416116419314481e-05 0.0000000000000000e+00  1.4300401252738840e-01 8.6523731799185443e-05 0.0000000000000000e+00  1.5987370007222926e-01 7.6582772625912311e-05 0.0000000000000000e+00  1.7674340345043810e-01 6.5336051980768850e-05 0.0000000000000000e+00  1.9361309741799990e-01 5.3540357415065886e-05 0.0000000000000000e+00  2.4427771245102864e-01 2.1903782286551167e-05 0.0000000000000000e+00  2.6913980170672624e-01 0.0000000000000000e+00 0.0000000000000000e+00  1.2044001462310617e-02 4.5007841475175195e-04 0.0000000000000000e+00  2.5711248763976091e-01 -3.9617955095433926e-04 0.0000000000000000e+00  2.6041926473053190e-01 3.5144111882512313e-03 0.0000000000000000e+00  8.6674451112050983e-03 -3.4303047621309086e-03 0.0000000000000000e+00  8.7576577931179848e-03 3.4966244866307073e-03 0.0000000000000000e+00  2.6043706321956378e-01 -3.4335712025177472e-03 0.0000000000000000e+00  2.6913980170672624e-01 0.0000000000000000e+00 0.0000000000000000e+00  2.3579511401242478e-01 -1.2184225693027083e-03 0.0000000000000000e+00  2.3486130772049693e-01 1.4460133067220311e-03 0.0000000000000000e+00  2.2734796934666338e-01 4.0849951813836790e-03 0.0000000000000000e+00  2.4418534711241596e-01 -4.0720330070660631e-03 0.0000000000000000e+00  1.6831114727038279e-01 -1.1625323703243560e-03 0.0000000000000000e+00  1.6737776577294097e-01 1.4792467960123709e-03 0.0000000000000000e+00  1.5986549230492877e-01 4.1251849379909528e-03 0.0000000000000000e+00  1.8517552357770925e-01 1.2930520578218602e-03 0.0000000000000000e+00  1.8425353432808600e-01 -1.3474569595313983e-03 0.0000000000000000e+00  1.7675235499246722e-01 -3.9834444249245374e-03 0.0000000000000000e+00  1.9360400128906505e-01 4.1022550026938590e-03 0.0000000000000000e+00  1.5144113333453932e-01 -1.1518474928327311e-03 0.0000000000000000e+00  1.5050843725429558e-01 1.4898507775771052e-03 0.0000000000000000e+00  1.4299713688084201e-01 4.1350564103419737e-03 0.0000000000000000e+00  1.7673444099465285e-01 4.1140111076704341e-03 0.0000000000000000e+00  1.5988191926168890e-01 -3.9722671257638210e-03 0.0000000000000000e+00  1.3457092824402697e-01 -1.1428479334504853e-03 0.0000000000000000e+00  1.3363932765616526e-01 1.4987367262135121e-03 0.0000000000000000e+00  1.2612938116577721e-01 4.1428547036225505e-03 0.0000000000000000e+00  1.4301086461001639e-01 -3.9623962513859372e-03 0.0000000000000000e+00  1.1770054837210397e-01 -1.1362742100685537e-03 0.0000000000000000e+00  1.1677041317964355e-01 1.5051444715151610e-03 0.0000000000000000e+00  1.0926224382393102e-01 4.1478700049198472e-03 0.0000000000000000e+00  1.2613923274401884e-01 -3.9545734326034828e-03 0.0000000000000000e+00  1.0082996997948433e-01 -1.1329081610260674e-03 0.0000000000000000e+00  9.9901727834970255e-02 1.5083176251614804e-03 0.0000000000000000e+00  9.2395700111898682e-02 4.1492686480745378e-03 0.0000000000000000e+00  1.0926695571134419e-01 -3.9495790892220550e-03 0.0000000000000000e+00  2.4978706406540048e-02 4.1477805227388299e-03 0.0000000000000000e+00  2.4942407039578802e-02 -4.0349465487657492e-03 0.0000000000000000e+00  3.3340238845787788e-02 -1.1776012309232023e-03 0.0000000000000000e+00  3.2423871220316501e-02 1.4880217706349883e-03 0.0000000000000000e+00  5.0224743492033180e-02 1.3179147823428738e-03 0.0000000000000000e+00  4.9289295875248322e-02 -1.3246341854714586e-03 0.0000000000000000e+00  4.1769060112245383e-02 -3.9773407623239247e-03 0.0000000000000000e+00  5.8664097888717993e-02 4.1382894191306441e-03 0.0000000000000000e+00  4.1796680565350984e-02 4.1290271812316169e-03 0.0000000000000000e+00  7.5520640533053310e-02 -3.9510022270054903e-03 0.0000000000000000e+00  8.3959219763897724e-02 -1.1334873819226253e-03 0.0000000000000000e+00  8.3033240538256864e-02 1.5074874387416466e-03 0.0000000000000000e+00  7.5529764365842494e-02 4.1463814606691003e-03 0.0000000000000000e+00  6.7092455114665883e-02 1.3283875314590095e-03 0.0000000000000000e+00  6.8015959402570492e-02 -1.3122446563099432e-03 0.0000000000000000e+00  5.8646195691358080e-02 -3.9589058961455089e-03 0.0000000000000000e+00  9.2394125772754201e-02 -3.9481400756236273e-03 0.0000000000000000e+00  2.1049172541568345e-01 -4.0065023495709879e-03 0.0000000000000000e+00  2.1891948820200607e-01 -1.1973033700381558e-03 0.0000000000000000e+00  2.1798651483183562e-01 1.4447799847805234e-03 0.0000000000000000e+00  2.1047449986755407e-01 4.0906087264769376e-03 0.0000000000000000e+00  2.0204522452139259e-01 1.2812084152526754e-03 0.0000000000000000e+00  2.0297878500473554e-01 -1.3604361857270436e-03 0.0000000000000000e+00  1.9362218183004623e-01 -3.9951377290706417e-03 0.0000000000000000e+00  2.4417290641195047e-01 4.1172575742541399e-03 0.0000000000000000e+00  2.2736322831423308e-01 -4.0217509098271036e-03 0.0000000000000000e+00  2.6266826156186113e-01 9.9374801766290827e-04 0.0000000000000000e+00  2.4846272796577701e-01 -2.0575586913287314e-03 0.0000000000000000e+00  0.0000000000000000e+00 0.0000000000000000e+00 0.0000000000000000e+00  6.4973834629285425e-03 -1.0037472190896467e-03 0.0000000000000000e+00  1.9137777079792351e-02 1.8294204882149765e-03 0.0000000000000000e+00  2.4846089291107448e-01 2.0985224679585376e-03 0.0000000000000000e+00  2.0663986553756099e-02 -2.0218981836818907e-03 0.0000000000000000e+00  2.5566856903551050e-01 2.0571146885088767e-03 0.0000000000000000e+00  1.3450827010726940e-02 -1.9961045613979549e-03 0.0000000000000000e+00  2.4155756691107269e-01 1.9657683931722952e-03 0.0000000000000000e+00  5.4675287131740989e-03 6.1116211002070213e-04 0.0000000000000000e+00  2.6369207118784599e-01 -5.9539038495705463e-04 0.0000000000000000e+00  1.9553875213637362e-01 2.0765244467313023e-03 0.0000000000000000e+00  2.2487299880320305e-01 2.0592305405407814e-03 0.0000000000000000e+00  6.0589927246918820e-02 2.1155137532211906e-03 0.0000000000000000e+00  8.9920189792913524e-02 2.1251224250933925e-03 0.0000000000000000e+00  4.2781625522244078e-02 -1.9499472249500020e-03 0.0000000000000000e+00  1.0733542654541077e-01 -1.9245816075543661e-03 0.0000000000000000e+00  1.2365664241581768e-01 2.1196564874301467e-03 0.0000000000000000e+00  1.4107715082199679e-01 -1.9368577124913803e-03 0.0000000000000000e+00  1.5739430906859259e-01 2.1024758700512944e-03 0.0000000000000000e+00  1.7775013339361642e-01 -1.9597339923264107e-03 0.0000000000000000e+00  7.4520443965549479e-02 -1.9266132227394068e-03 0.0000000000000000e+00  2.0948472821759437e-01 -1.9815327443555410e-03 0.0000000000000000e+00  0.0000000000000000e+00 0.0000000000000000e+00 0.0000000000000000e+00  2.6913980170672624e-01 0.0000000000000000e+00 0.0000000000000000e+00  2.2928577720314247e-01 -1.9998098369192275e-03 0.0000000000000000e+00  2.0854831655900022e-01 2.0674533986712890e-03 0.0000000000000000e+00  9.4324785142016546e-02 -1.9234373313643397e-03 0.0000000000000000e+00  7.3597644962998379e-02 2.1217491569665205e-03 0.0000000000000000e+00  1.0678826590751464e-01 2.1242272125311283e-03 0.0000000000000000e+00  1.2806697028599179e-01 -1.9307841172045374e-03 0.0000000000000000e+00  1.4052532641513454e-01 2.1121444132116422e-03 0.0000000000000000e+00  1.6180794490794972e-01 -1.9490425260756917e-03 0.0000000000000000e+00  1.7866908635269815e-01 2.0883523687206316e-03 0.0000000000000000e+00  4.3723011324707808e-02 2.1050640961049029e-03 0.0000000000000000e+00  5.6175338645269662e-02 -1.9357193472704433e-03 0.0000000000000000e+00  1.9114218679799505e-01 -1.9690694996009296e-03 0.0000000000000000e+00  2.5929264955384921e-02 2.1260897618635313e-03 0.0000000000000000e+00  2.7390481322415831e-02 -2.1520276422527726e-03 0.0000000000000000e+00  2.4173900383820887e-01 -2.1888843583369633e-03 0.0000000000000000e+00  1.9750052843291996e-01 -2.4222120270425782e-03 0.0000000000000000e+00  6.2532569015475603e-02 -2.3805658112886143e-03 0.0000000000000000e+00  1.3036827781154224e-02 2.3445242583141632e-03 0.0000000000000000e+00  2.5085252485539977e-01 2.1300066797554537e-04 0.0000000000000000e+00  2.5478415488547274e-01 -2.2088899194636614e-03 0.0000000000000000e+00  1.8318831232403833e-02 -1.5353942838074373e-04 0.0000000000000000e+00  1.8938978268996112e-01 2.6976497443668562e-03 0.0000000000000000e+00  5.4444577292862339e-02 2.7282113144450112e-03 0.0000000000000000e+00  2.2314038707533193e-01 -2.6087461597543837e-03 0.0000000000000000e+00  8.8176329469742812e-02 -2.5406302091129322e-03 0.0000000000000000e+00  1.1334514386436234e-01 -2.5053167232488511e-03 0.0000000000000000e+00  1.2191965866268771e-01 -2.5453071666470973e-03 0.0000000000000000e+00  1.4708725840831055e-01 -2.5195331262415598e-03 0.0000000000000000e+00  1.5566139837832710e-01 -2.5620035674391774e-03 0.0000000000000000e+00  1.7249665168073036e-01 2.6491073167534463e-03 0.0000000000000000e+00  3.7554995385556192e-02 2.6622732081902863e-03 0.0000000000000000e+00  2.1470929456066665e-01 -4.0093667146973546e-03 0.0000000000000000e+00  7.9739055763608818e-02 -3.9498708459088250e-03 0.0000000000000000e+00  1.7209044082305683e-01 -2.5726674497849535e-03 0.0000000000000000e+00  3.7117791562439793e-02 -2.5801225641498178e-03 0.0000000000000000e+00  2.1469252544445694e-01 4.0879561964572673e-03 0.0000000000000000e+00  7.9746182952432493e-02 4.1475785201858240e-03 0.0000000000000000e+00  9.6612266194365817e-02 4.1493195794793086e-03 0.0000000000000000e+00  1.1347895485047355e-01 4.1469300227539984e-03 0.0000000000000000e+00  1.3034625465384811e-01 4.1411527437934352e-03 0.0000000000000000e+00  1.4721415823823070e-01 4.1327530677727157e-03 0.0000000000000000e+00  1.6408266914078240e-01 4.1224848550138055e-03 0.0000000000000000e+00  2.3156557492252219e-01 4.0879894454150809e-03 0.0000000000000000e+00  2.6435589872649845e-01 2.4410048410652379e-03 0.0000000000000000e+00  4.7679866612838932e-03 2.5685227759011018e-03 0.0000000000000000e+00  2.6431497079094651e-01 -1.5376726002683094e-03 0.0000000000000000e+00  4.6252232580866548e-03 -2.3657548846458703e-03 0.0000000000000000e+00  3.7567761304427794e-02 1.0569788783856466e-03 0.0000000000000000e+00  2.2252463186713017e-01 6.5185879377325877e-04 0.0000000000000000e+00  8.7569394495555286e-02 7.1794196872691275e-04 0.0000000000000000e+00  1.2130785815424006e-01 7.1348047698921013e-04 0.0000000000000000e+00  1.5504671046219140e-01 6.9689041831824422e-04 0.0000000000000000e+00  1.9914743688285966e-01 -1.4367914780117759e-04 0.0000000000000000e+00  6.4189221899342980e-02 -9.9893281209675419e-05 0.0000000000000000e+00  5.3121665717568461e-02 -1.0694567217843683e-04 0.0000000000000000e+00  1.0443858716686075e-01 7.1760531185579679e-04 0.0000000000000000e+00  1.3817724879143573e-01 7.0632137216966519e-04 0.0000000000000000e+00  1.8807958598455196e-01 -1.3594407572571084e-04 0.0000000000000000e+00  1.7252126062197404e-01 1.0481671492263173e-03 0.0000000000000000e+00  2.3919824398217124e-01 5.1973204752679073e-04 0.0000000000000000e+00  7.7713407351080697e-03 1.9650204214524563e-03 0.0000000000000000e+00  7.9942350400162801e-02 -2.2848345516922456e-03 0.0000000000000000e+00  2.1490698668836128e-01 -2.3448336325832733e-03 0.0000000000000000e+00  1.6285840132153057e-01 2.4807665011126762e-03 0.0000000000000000e+00  2.3033769231415874e-01 2.4432885769539925e-03 0.0000000000000000e+00  1.1225258137718797e-01 2.5048571725859517e-03 0.0000000000000000e+00  1.4598943418495905e-01 2.4909723112116469e-03 0.0000000000000000e+00  1.2912082899985713e-01 2.4992521007789260e-03 0.0000000000000000e+00  9.5384695248027229e-02 2.5070172691941603e-03 0.0000000000000000e+00  2.0508242076284627e-01 -2.7634455892870677e-03 0.0000000000000000e+00  7.0114537218739975e-02 -2.7132021275081725e-03 0.0000000000000000e+00  1.8096986703771376e-01 -3.9863531119198256e-03 0.0000000000000000e+00  4.5988580932682620e-02 -3.9704695340730097e-03 0.0000000000000000e+00  3.0349668898441540e-02 2.9012497721958418e-03 0.0000000000000000e+00  3.8448065832447469e-02 -1.0928486279903490e-03 0.0000000000000000e+00  1.7341331836793947e-01 -1.0936991980972841e-03 0.0000000000000000e+00  1.9130704593269013e-01 1.3477783524138338e-03 0.0000000000000000e+00  5.6355703177358801e-02 1.3812016794196077e-03 0.0000000000000000e+00  8.9026623964743451e-02 -1.0388804064747476e-03 0.0000000000000000e+00  2.2398616928087164e-01 -1.1074577055858849e-03 0.0000000000000000e+00  1.2276770070108384e-01 -1.0439823583805769e-03 0.0000000000000000e+00  1.5650809302655988e-01 -1.0609487901228603e-03 0.0000000000000000e+00  2.5937915281799501e-01 -2.3400093027266121e-03 0.0000000000000000e+00  2.1379403340816894e-01 2.4824025760354206e-03 0.0000000000000000e+00  7.8843767888554558e-02 2.5416660117907270e-03 0.0000000000000000e+00  2.0821447597321418e-02 4.1400487882897316e-03 0.0000000000000000e+00  1.1144531880552622e-01 -1.1830638311786594e-03 0.0000000000000000e+00  1.4518609663723842e-01 -1.1967265633998029e-03 0.0000000000000000e+00  1.8199791256135667e-01 -2.5976884249775444e-03 0.0000000000000000e+00  4.7026066010150025e-02 -2.5792437212021095e-03 0.0000000000000000e+00  5.1821083655819451e-02 -2.5434267486998939e-03 0.0000000000000000e+00  1.8679185433949735e-01 -2.5701847992850796e-03 0.0000000000000000e+00  2.1416607801217782e-01 -9.0682437201052013e-04 0.0000000000000000e+00  7.9206074917802072e-02 -8.4726484541795572e-04 0.0000000000000000e+00  1.1448432010237229e-01 9.8256390822496384e-05 0.0000000000000000e+00  1.4822372166921144e-01 8.3630132273275907e-05 0.0000000000000000e+00  4.9726865581867341e-02 2.7250708999221173e-03 0.0000000000000000e+00  1.8467122377033976e-01 2.7009612791232180e-03 0.0000000000000000e+00  1.6387306148360395e-01 -6.7793502769256542e-04 0.0000000000000000e+00  1.3013310513368936e-01 -6.5916977040005487e-04 0.0000000000000000e+00  9.6392696355102669e-02 -6.5094614268878452e-04 0.0000000000000000e+00  2.3135288870721243e-01 -7.2653537629189494e-04 0.0000000000000000e+00  6.5209899643533228e-02 2.7347821500911845e-03 0.0000000000000000e+00  2.0015700704868616e-01 2.6900740993874876e-03 0.0000000000000000e+00  3.0116181680878061e-02 6.3698332806366937e-05 0.0000000000000000e+00  4.5786770069586646e-02 8.3295037359809099e-04 0.0000000000000000e+00  1.8073957190173209e-01 8.1449982933929981e-04 0.0000000000000000e+00  7.1528455690944320e-02 8.4869356144001327e-04 0.0000000000000000e+00  2.0648322537428634e-01 7.9651547845568200e-04 0.0000000000000000e+00  3.2015746613658538e-02 -2.5988304489935527e-03 0.0000000000000000e+00  1.6642894641123052e-01 -2.5688790040334216e-03 0.0000000000000000e+00  1.3268770375064495e-01 -2.5496252499941120e-03 0.0000000000000000e+00  9.8944882461256572e-02 -2.5404577055548167e-03 0.0000000000000000e+00  2.3390487848760569e-01 -2.6278382540949096e-03 0.0000000000000000e+00  1.3879301128690938e-01 -3.9602153620420010e-03 0.0000000000000000e+00  1.0504880095786777e-01 -3.9488507494508992e-03 0.0000000000000000e+00  7.1313362869152297e-02 4.1448664664356441e-03 0.0000000000000000e+00  2.0625671053784495e-01 4.0934453364926170e-03 0.0000000000000000e+00  1.3898751854745545e-01 -6.7803244109350478e-04 0.0000000000000000e+00  1.0524721044311784e-01 -6.6646389052808124e-04 0.0000000000000000e+00  2.4056474318775040e-01 -8.2665315959291701e-04 0.0000000000000000e+00  4.6013607832683413e-02 4.1303660702667715e-03 0.0000000000000000e+00  1.8095177748579669e-01 4.1111030292415125e-03 0.0000000000000000e+00  2.3998644376959186e-01 4.1047781147832575e-03 0.0000000000000000e+00  2.3736185559447934e-01 2.7136680094638948e-03 0.0000000000000000e+00  6.0999887187594443e-02 -1.0874889081317781e-03 0.0000000000000000e+00  1.9596236481438326e-01 -1.1273163012511884e-03 0.0000000000000000e+00  2.5211053055188948e-01 -1.1458165673869382e-03 0.0000000000000000e+00  1.2191254046925161e-01 4.1443880613133135e-03 0.0000000000000000e+00  1.1926958057798114e-01 2.7604902125432981e-03 0.0000000000000000e+00  8.8179162540824918e-02 4.1489624470383568e-03 0.0000000000000000e+00  8.5534263940693495e-02 2.7639652914402566e-03 0.0000000000000000e+00  1.5564834506573694e-01 4.1277905842418685e-03 0.0000000000000000e+00  1.5300649256827031e-01 2.7445183272288547e-03 0.0000000000000000e+00  2.2312936512778098e-01 4.0846197815063287e-03 0.0000000000000000e+00  2.2048533110694005e-01 2.6999425377786808e-03 0.0000000000000000e+00  1.3878014024031199e-01 4.1372108731853666e-03 0.0000000000000000e+00  1.3613783699501961e-01 2.7536861883030437e-03 0.0000000000000000e+00  1.0504554875760116e-01 4.1485574754055975e-03 0.0000000000000000e+00  1.0240172117999749e-01 2.7641698810452128e-03 0.0000000000000000e+00  3.9173986321174798e-03 -1.2637424843467803e-03 0.0000000000000000e+00  2.6526113488899578e-01 1.1841950869593573e-03 0.0000000000000000e+00  9.5478402063696052e-02 1.1264066251156183e-03 0.0000000000000000e+00  1.2921641185237270e-01 1.1185646073485819e-03 0.0000000000000000e+00  2.3043493988730518e-01 1.0594075356055782e-03 0.0000000000000000e+00  2.0710643890248109e-01 -8