<?xml version="1.0"?>
<VTKFile type="UnstructuredGrid"  version="0.1"  >
<UnstructuredGrid>
<Piece  NumberOfPoints="5173" NumberOfCells="9966">
<Points>
<DataArray  type="Float64"  NumberOfComponents="3"  format="ascii">-0.5 0.5 0  -0.5 -0.5 0  0.5 -0.5 0  0.5 0.5 0  0.1998669600420274 0.02125869712947308 0  0.201 0 0  0.1998669600420274 -0.02125869712947312 0  0.1964806779635733 -0.04227652472592507 0  0.1908795216936763 -0.06281534240438978 0  0.1831269545709826 -0.08264243715367564 0  0.1733108162787611 -0.1015331600677681 0  0.1615423275861927 -0.1192734717077003 0  0.1479548301726135 -0.1356623672539232 0  0.1327022758130076 -0.1505141539712278 0  0.1159574820428814 -0.1636605551816338 0  0.09791017406652992 -0.1749526169063923 0  0.07876483509466403 -0.1842623955740826 0  0.05873838946792427 -0.1914844076724011 0  0.03805774481742277 -0.1965368249185042 0  0.01695722111061653 -0.1993624014061501 0  -0.004324104287555032 -0.1999291222246905 0  -0.02554510545674447 -0.1982305662008014 0  -0.04646533997422303 -0.194285978652942 0  -0.06684777322360611 -0.1881400533342067 0  -0.08646146409177112 -0.1798624260342438 0  -0.1050841816239485 -0.1695468855779342 0  -0.1225049229892384 -0.1573103111605285 0  -0.138526304226997 -0.143291348059663 0  -0.1529667966859812 -0.127648836728964 0  -0.165662783816503 -0.1105600130722386 0  -0.1764704150113143 -0.0922185002898652 0  -0.1852672354904677 -0.07283211505056446 0  -0.1919535737629032 -0.05262051284550421 0  -0.1964536709442689 -0.03181269920381437 0  -0.1987165391353524 -0.0106444349684357 0  -0.1987165391353524 0.01064443496843575 0  -0.1964536709442689 0.03181269920381442 0  -0.1919535737629032 0.05262051284550433 0  -0.1852672354904677 0.07283211505056443 0  -0.1764704150113143 0.09221850028986515 0  -0.165662783816503 0.1105600130722387 0  -0.1529667966859812 0.1276488367289641 0  -0.1385263042269969 0.1432913480596631 0  -0.1225049229892383 0.1573103111605285 0  -0.1050841816239485 0.1695468855779342 0  -0.08646146409177108 0.1798624260342438 0  -0.06684777322360606 0.1881400533342067 0  -0.04646533997422297 0.194285978652942 0  -0.02554510545674437 0.1982305662008015 0  -0.004324104287554939 0.1999291222246905 0  0.01695722111061662 0.19936240140615 0  0.03805774481742286 0.1965368249185042 0  0.05873838946792424 0.1914844076724011 0  0.07876483509466414 0.1842623955740826 0  0.09791017406653006 0.1749526169063922 0  0.1159574820428814 0.1636605551816338 0  0.1327022758130078 0.1505141539712277 0  0.1479548301726135 0.1356623672539232 0  0.1615423275861927 0.1192734717077003 0  0.1733108162787612 0.101533160067768 0  0.1831269545709827 0.08264243715367564 0  0.1908795216936763 0.06281534240438975 0  0.1964806779635734 0.04227652472592486 0  0 -0.5 0  0 0.5 0  -0.5 0 0  0.5 0 0  0.25 -0.5 0  0.25 0.5 0  0.5 0.25 0  0.5 -0.25 0  -0.25 0.5 0  -0.25 -0.5 0  -0.5 -0.25 0  -0.5 0.25 0  0.2918258229480683 0.2918258229480682 0  0.2865867850624828 -0.2932931940421196 0  -0.2962949893701896 0.274449924397287 0  -0.2913160373738303 -0.2913160373738304 0  -0.125 0.3636995408959175 0  0.3637738468862107 -0.1261303957107176 0  0.125 0.3665964626830409 0  0.3640958654762797 0.1232161970438493 0  -0.3624000654276585 -0.1218337159209422 0  -0.125 -0.3668200952157802 0  0.125 -0.3712838880907947 0  -0.3600991828528437 0.1089843577122111 0  -0.5 0.375 0  0.5 -0.375 0  -0.375 -0.5 0  0.5 0.375 0  -0.375 0.5 0  0.375 -0.5 0  -0.5 -0.375 0  0.375 0.5 0  0.0006860903712339345 -0.3306266888645853 0  -0.000109901520948898 0.3746323380112415 0  -0.5 0.125 0  -0.125 -0.5 0  -0.5 -0.125 0  0.5 0.125 0  0.5 -0.125 0  0.125 -0.5 0  -0.125 0.5 0  0.125 0.5 0  0.3748576787807123 -0.001471205609738957 0  -0.3738828512115154 0.3738828512115154 0  -0.3827617049088436 -0.006210238480157219 0  -0.2429234745416257 0.3810213699917807 0  0.3769180353829246 -0.3769180353829246 0  -0.3777687524152424 -0.3777687524152424 0  0.3780704009792175 0.3780704009792175 0  -0.1776483227107271 -0.2618630460446135 0  -0.2604485542051718 -0.1787215021996984 0  -0.1798547561877991 0.2599748505350166 0  0.3864703130478905 -0.2380123189195306 0  0.1785319646943122 0.2625417448451246 0  0.261692611046212 0.1791168901036931 0  0.2607171500730768 -0.1799460669666111 0  0.1733970740599892 -0.2651674952354912 0  -0.3880520258539732 -0.2322407641539351 0  -0.2352016482221373 -0.388638232840279 0  0.2734696242623063 0.3964265996649794 0  0.3883795026617865 0.233417864889234 0  0.2738670858792859 -0.3976331321261044 0  -0.2491638954018168 0.1780101911767213 0  -0.3926686215746083 0.2165776265637375 0  0.07109213498061834 0.2869023807262104 0  -0.2934183534017453 0.03147305416145122 0  -0.08119265072200343 -0.2826195781877594 0  0.2836913223256923 -0.07709296110799269 0  -0.0558729689268372 0.2928347535333279 0  0.2830965643121598 0.07693076420704528 0  0.08122371629649494 -0.2825469282280794 0  -0.2767834230915197 -0.08819590430941976 0  0.1875 0.4332982313415205 0  -0.04303186331845871 -0.4151376431551652 0  0.190970733019215 -0.4322714131851434 0  0.06249999999999999 -0.4356419440453974 0  0.4328061849987423 0.06633847947711793 0  0.0664712649494027 0.4332982313415205 0  -0.06249999999999998 0.4373709104419552 0  0.4341377633941729 0.309372588857957 0  -0.4374372828954266 -0.3125 0  -0.3104572497507675 -0.4353019888851174 0  0.4374701104890421 -0.3125 0  -0.3116291712721947 0.4366347031852421 0  -0.4374901042687089 0.3125 0  -0.4363926600558238 0.4363926600558238 0  -0.5 0.0625 0  0.5 -0.0625 0  0.5 -0.4375 0  -0.4375 -0.5 0  0.5 0.4375 0  -0.1875 0.5 0  -0.4323246583268963 -0.07454303397230311 0  0.2154950463309389 -0.3375719358844427 0  0.206977802238796 0.342973363124546 0  0.4322596267199844 -0.1704803839098939 0  -0.1690769129391571 -0.4334100476078901 0  0.5 0.1875 0  -0.5 -0.1875 0  0.2967149326504868 -2.965984816150069e-05 0  -0.2579082457853068 0.1006999711688991 0  -0.4261732609354634 -0.1652001701086123 0  0.4197274728231854 -0.06828306080156128 0  0.4316260558094222 0.15625 0  -0.1765935890523967 0.4225213035878151 0  -0.326101012911042 0.1780020696215199 0  -0.3639018823524438 -0.3051829074366289 0  -0.4219359613016062 0.06132313683084987 0  -0.368871881750981 0.2861301036496543 0  -0.3031928482819811 -0.3630024307590357 0  0.3125 0.5 0  0.3355547846059301 -0.437829382399898 0  0.3620936304880762 0.3078025934392096 0  -0.4265460575686851 0.1475964618934338 0  0.4375 -0.5 0  -0.5 -0.4375 0  0.4375 0.5 0  0.3587983613906559 -0.3058906763528768 0  -0.1889171018677358 -0.3331988582480375 0  0.3319769361362775 -0.1908238194547704 0  0.3337713745363715 0.4328433800405805 0  -0.3319644446835826 -0.1870886352472088 0  0.3329253892881625 0.1878611701133833 0  0.4281511341447153 -0.4281511341447153 0  -0.232840147849867 0.3093215053326949 0  -0.40625 -0.4395608850352885 0  0.428794887401249 0.428794887401249 0  -0.3380841551254475 -0.05794700007688498 0  0.008054260670409629 -0.2648994211243904 0  0.1899220001124564 -0.1947534447033338 0  -0.3080416507322476 0.3708200057439822 0  -0.06307278823153059 -0.3455430469652901 0  0.06447087227249242 -0.3459780260685607 0  0.1914876772934198 0.1922953616824615 0  0.1267822167193652 -0.4357424153550361 0  -0.1100367963981227 0.2468729543145758 0  -0.1040301628609493 -0.4382371732506554 0  0.008496887133013969 0.3088587185741126 0  -0.1939711685411953 -0.1799889819170536 0  0.1169089524024441 0.2383640108781663 0  -0.5 0.1875 0  -0.06301873836730842 0.3744639870876723 0  0.0612272731888486 0.3516549422231338 0  0.0001842875295821901 0.4373159592812666 0  0.315570863666392 0.3499038328432952 0  0.43737589643705 0.003767781375474147 0  0.3480437072584214 -0.06190943679164183 0  0.3704548124556613 0.06095691071954262 0  0.3139725644615085 -0.3495769689516506 0  0.5 -0.1875 0  -0.5 -0.0625 0  -0.5 0.3125 0  -0.1875 -0.5 0  -0.3125 0.5 0  -0.3125 -0.5 0  -0.5 -0.3125 0  0.5 0.3125 0  -0.0625 0.5 0  0.5 0.0625 0  0.0625 -0.5 0  0.1875 -0.5 0  0.3125 -0.5 0  0.1875 0.5 0  0.0625 0.5 0  0.5 -0.3125 0  -0.4375 0.5 0  -0.5 0.4375 0  -0.0625 -0.5 0  -0.3740130545720807 0.4376162026208867 0  0.2356432480937504 -0.1203529309141897 0  0.2354253261260549 0.120280228505195 0  -0.4358389466402443 0.374436564627095 0  -0.1837098359759774 0.1929485386776155 0  -0.1210077767998366 -0.2331474219302516 0  -0.4388230181844467 -0.3736756227341544 0  0.2385916116983025 -0.2446215854929363 0  0.01618154697154811 -0.392205807603664 0  0.3033224724982568 0.1345019962362828 0  0.1269856324747013 0.4273682536406486 0  -0.2618767198442009 -0.02513308225372456 0  -0.1869024341550137 0.3523407916866587 0  0.4460792014197047 0.2150519456240759 0  -0.228067921023645 -0.1261420173261541 0  0.4375111104956734 0.3693541778847931 0  -0.2344434115929863 0.441225502334267 0  -0.1349409233725989 -0.3081519167298867 0  0.2361921270004774 0.236858231392783 0  -0.1134625589296566 0.3058057213872041 0  0.1364902237265291 -0.2193600350069504 0  -0.231009496195906 -0.2899916451544192 0  -0.4420301468408164 -0.0153626464053197 0  -0.3638407636123014 0.04989392276612995 0  -0.2281634567999949 -0.2293698735254731 0  -0.2404608239114909 0.2480193450766527 0  0.1548586079872366 0.3161601351946364 0  -0.2905808065687782 -0.2309892133488608 0  0.1583090638615736 -0.3223807786382032 0  0.3037640590628244 -0.1367963242859415 0  0.441474411355182 -0.3710236808063671 0  -0.1184457037417267 0.4214861255011078 0  0.3280783743867655 -0.2503846686276005 0  0.4421147536667354 -0.254616967737483 0  -0.4419160956032748 -0.2544205585064326 0  -0.3074463395544132 -0.1359279022829991 0  0.3366964226424555 0.256991018383815 0  -0.4508616135570574 0.21875 0  -0.3395120610056381 0.2372377549435862 0  -0.2261617732606898 -0.4465036260914809 0  0.2350726063974556 0.2936290504086719 0  0.007756726855498133 0.253726523067807 0  0.2816091581197124 -0.4531847002458751 0  0.002693579241951911 -0.4452927028974097 0  0.2614770372227774 0.3432624384800261 0  0.2905620892368345 0.2263682042801985 0  -0.2876366597373845 0.2178464403043631 0  0.2807413030307
[...]
<PointData  Vectors="f_44"> 
<DataArray  type="Float64"  Name="f_44"  NumberOfComponents="3" format="ascii">2.3371173648586763e-02 1.1428571428571430e-01 0.0000000000000000e+00  -1.7808133042304154e-02 3.5995246218740597e-02 0.0000000000000000e+00  1.7758361759966836e-02 3.5904428900625798e-02 0.0000000000000000e+00  -2.0381108131087233e-02 1.1428571428571431e-01 0.0000000000000000e+00  0.0000000000000000e+00 0.0000000000000000e+00 0.0000000000000000e+00  0.0000000000000000e+00 0.0000000000000000e+00 0.0000000000000000e+00  0.0000000000000000e+00 0.0000000000000000e+00 0.0000000000000000e+00  0.0000000000000000e+00 0.0000000000000000e+00 0.0000000000000000e+00  0.0000000000000000e+00 0.0000000000000000e+00 0.0000000000000000e+00  0.0000000000000000e+00 0.0000000000000000e+00 0.0000000000000000e+00  0.0000000000000000e+00 0.0000000000000000e+00 0.0000000000000000e+00  0.0000000000000000e+00 0.0000000000000000e+00 0.0000000000000000e+00  0.0000000000000000e+00 0.0000000000000000e+00 0.0000000000000000e+00  0.0000000000000000e+00 0.0000000000000000e+00 0.0000000000000000e+00  0.0000000000000000e+00 0.0000000000000000e+00 0.0000000000000000e+00  0.0000000000000000e+00 0.0000000000000000e+00 0.0000000000000000e+00  0.0000000000000000e+00 0.0000000000000000e+00 0.0000000000000000e+00  0.0000000000000000e+00 0.0000000000000000e+00 0.0000000000000000e+00  0.0000000000000000e+00 0.0000000000000000e+00 0.0000000000000000e+00  0.0000000000000000e+00 0.0000000000000000e+00 0.0000000000000000e+00  0.0000000000000000e+00 0.0000000000000000e+00 0.0000000000000000e+00  0.0000000000000000e+00 0.0000000000000000e+00 0.0000000000000000e+00  0.0000000000000000e+00 0.0000000000000000e+00 0.0000000000000000e+00  0.0000000000000000e+00 0.0000000000000000e+00 0.0000000000000000e+00  0.0000000000000000e+00 0.0000000000000000e+00 0.0000000000000000e+00  0.0000000000000000e+00 0.0000000000000000e+00 0.0000000000000000e+00  0.0000000000000000e+00 0.0000000000000000e+00 0.0000000000000000e+00  0.0000000000000000e+00 0.0000000000000000e+00 0.0000000000000000e+00  0.0000000000000000e+00 0.0000000000000000e+00 0.0000000000000000e+00  0.0000000000000000e+00 0.0000000000000000e+00 0.0000000000000000e+00  0.0000000000000000e+00 0.0000000000000000e+00 0.0000000000000000e+00  0.0000000000000000e+00 0.0000000000000000e+00 0.0000000000000000e+00  0.0000000000000000e+00 0.0000000000000000e+00 0.0000000000000000e+00  0.0000000000000000e+00 0.0000000000000000e+00 0.0000000000000000e+00  0.0000000000000000e+00 0.0000000000000000e+00 0.0000000000000000e+00  0.0000000000000000e+00 0.0000000000000000e+00 0.0000000000000000e+00  0.0000000000000000e+00 0.0000000000000000e+00 0.0000000000000000e+00  0.0000000000000000e+00 0.0000000000000000e+00 0.0000000000000000e+00  0.0000000000000000e+00 0.0000000000000000e+00 0.0000000000000000e+00  0.0000000000000000e+00 0.0000000000000000e+00 0.0000000000000000e+00  0.0000000000000000e+00 0.0000000000000000e+00 0.0000000000000000e+00  0.0000000000000000e+00 0.0000000000000000e+00 0.0000000000000000e+00  0.0000000000000000e+00 0.0000000000000000e+00 0.0000000000000000e+00  0.0000000000000000e+00 0.0000000000000000e+00 0.0000000000000000e+00  0.0000000000000000e+00 0.0000000000000000e+00 0.0000000000000000e+00  0.0000000000000000e+00 0.0000000000000000e+00 0.0000000000000000e+00  0.0000000000000000e+00 0.0000000000000000e+00 0.0000000000000000e+00  0.0000000000000000e+00 0.0000000000000000e+00 0.0000000000000000e+00  0.0000000000000000e+00 0.0000000000000000e+00 0.0000000000000000e+00  0.0000000000000000e+00 0.0000000000000000e+00 0.0000000000000000e+00  0.0000000000000000e+00 0.0000000000000000e+00 0.0000000000000000e+00  0.0000000000000000e+00 0.0000000000000000e+00 0.0000000000000000e+00  0.0000000000000000e+00 0.0000000000000000e+00 0.0000000000000000e+00  0.0000000000000000e+00 0.0000000000000000e+00 0.0000000000000000e+00  0.0000000000000000e+00 0.0000000000000000e+00 0.0000000000000000e+00  0.0000000000000000e+00 0.0000000000000000e+00 0.0000000000000000e+00  0.0000000000000000e+00 0.0000000000000000e+00 0.0000000000000000e+00  0.0000000000000000e+00 0.0000000000000000e+00 0.0000000000000000e+00  0.0000000000000000e+00 0.0000000000000000e+00 0.0000000000000000e+00  0.0000000000000000e+00 0.0000000000000000e+00 0.0000000000000000e+00  0.0000000000000000e+00 0.0000000000000000e+00 0.0000000000000000e+00  0.0000000000000000e+00 0.0000000000000000e+00 0.0000000000000000e+00  0.0000000000000000e+00 0.0000000000000000e+00 0.0000000000000000e+00  -7.8858764821805480e-05 6.5260770405949570e-03 0.0000000000000000e+00  1.2185283628456680e-03 1.1428571428571430e-01 0.0000000000000000e+00  8.0710800947344993e-03 5.6560575482814963e-02 0.0000000000000000e+00  -8.4128582299017162e-03 5.6632651143581542e-02 0.0000000000000000e+00  1.5270953691005926e-02 1.7987623376411375e-02 0.0000000000000000e+00  -5.1601369409525607e-03 1.1428571428571428e-01 0.0000000000000000e+00  -2.9258215281418809e-02 7.8861818611471499e-02 0.0000000000000000e+00  6.0871705966240187e-03 3.8362430020839340e-02 0.0000000000000000e+00  7.6413374633358955e-03 1.1428571428571430e-01 0.0000000000000000e+00  -1.5369673837965191e-02 1.8105648888404886e-02 0.0000000000000000e+00  -6.1489187159034665e-03 3.8416112430922709e-02 0.0000000000000000e+00  3.0406643150794624e-02 7.9845475714910838e-02 0.0000000000000000e+00  -2.1116361757154450e-02 8.2352358515533144e-02 0.0000000000000000e+00  7.6690511171757896e-03 1.9981507131501951e-02 0.0000000000000000e+00  2.6213909629475028e-02 7.5154888532100825e-02 0.0000000000000000e+00  -7.7397576970047524e-03 2.0622066115071395e-02 0.0000000000000000e+00  6.8143295622686744e-03 1.1175531954230390e-01 0.0000000000000000e+00  3.2868124334655534e-03 3.2262414400201188e-02 0.0000000000000000e+00  -4.3240432810062908e-03 1.1158815150985950e-01 0.0000000000000000e+00  -1.6081993754757593e-02 5.4612657006129377e-02 0.0000000000000000e+00  -3.2176066467810528e-03 3.2363027546534910e-02 0.0000000000000000e+00  -4.9942233967589502e-03 7.4969621061533433e-03 0.0000000000000000e+00  4.9857861270983682e-03 7.4991228674962966e-03 0.0000000000000000e+00  1.3706654003430572e-02 5.1543791686433346e-02 0.0000000000000000e+00  2.7252263358429934e-02 9.3090799913945699e-02 0.0000000000000000e+00  1.0956480579549399e-02 3.5969706979980740e-02 0.0000000000000000e+00  -1.7746828472336502e-02 2.7906324618327615e-02 0.0000000000000000e+00  -2.4501267613321807e-02 9.2633690919843623e-02 0.0000000000000000e+00  1.6111510622378949e-02 1.1428571428571430e-01 0.0000000000000000e+00  1.7685838480560784e-02 2.7802554077224796e-02 0.0000000000000000e+00  -1.1009218592561988e-02 3.6057717391679039e-02 0.0000000000000000e+00  -1.3214114857827530e-02 1.1428571428571430e-01 0.0000000000000000e+00  -2.2001748159052822e-05 3.1005646970085135e-03 0.0000000000000000e+00  1.1055579753558836e-03 1.1391933489735752e-01 0.0000000000000000e+00  2.1046003796172379e-02 6.9542146899926688e-02 0.0000000000000000e+00  -9.0535048566942888e-03 9.7745386422767189e-03 0.0000000000000000e+00  -8.0282885078047862e-04 4.5241521237648616e-02 0.0000000000000000e+00  -2.1391772681502084e-02 6.9184858244803041e-02 0.0000000000000000e+00  6.7149170207158411e-04 4.5288138399673473e-02 0.0000000000000000e+00  8.9305378289490922e-03 9.6996524364796523e-03 0.0000000000000000e+00  3.1377943231134034e-03 1.1428571428571428e-01 0.0000000000000000e+00  -7.1764088150776616e-04 1.1428571428571430e-01 0.0000000000000000e+00  -4.2860250250719295e-03 4.1943618398333549e-02 0.0000000000000000e+00  2.0920705001038164e-02 9.3698208416708867e-02 0.0000000000000000e+00  3.9168519885801022e-03 4.2648063686006071e-02 0.0000000000000000e+00  1.0847684493233135e-02 1.0205867461382424e-01 0.0000000000000000e+00  1.0964215855942226e-02 2.7995554523298365e-02 0.0000000000000000e+00  -1.1056374197609862e-02 2.8166411024916738e-02 0.0000000000000000e+00  -1.8020854484645150e-02 9.4819259547238605e-02 0.0000000000000000e+00  -4.8965102239026592e-03 8.9548773312062482e-03 0.0000000000000000e+00  -5.1249666453132992e-03 1.6907378107325260e-02 0.0000000000000000e+00  2.1066584611373253e-02 1.9486468726725496e-02 0.0000000000000000e+00  6.7044708324350511e-03 3.0905731791948103e-02 0.0000000000000000e+00  -1.7343107577456347e-02 9.9827418683292563e-02 0.0000000000000000e+00  -1.6787057025721475e-02 4.0007934729641932e-02 0.0000000000000000e+00  5.1014995711890134e-03 1.6722549307788565e-02 0.0000000000000000e+00  4.7655381809629241e-03 8.5296014387002302e-03 0.0000000000000000e+00  -6.5780508535849139e-03 3.1305058679747540e-02 0.0000000000000000e+00  -9.1591836283365733e-03 1.5832287208945837e-02 0.0000000000000000e+00  -9.3016771454755634e-03 1.0158669696487795e-01 0.0000000000000000e+00  -2.6474416356281890e-02 7.2862476205774934e-02 0.0000000000000000e+00  1.0340106768861351e-02 1.9119843599960482e-02 0.0000000000000000e+00  1.4483039753907634e-02 3.4460164434765891e-02 0.0000000000000000e+00  2.6389939735172049e-02 7.0669238665765494e-02 0.0000000000000000e+00  -5.9580345906812037e-03 1.0979876594845180e-01 0.0000000000000000e+00  3.3710476196861299e-03 2.9194106786488660e-02 0.0000000000000000e+00  -2.3213722288388220e-03 3.4459816095489958e-03 0.0000000000000000e+00  2.2970097469847662e-03 2.1228582200529075e-02 0.0000000000000000e+00  4.0952425823667102e-03 1.0736155375205306e-01 0.0000000000000000e+00  -6.2850082064391088e-03 3.1106013631157302e-02 0.0000000000000000e+00  2.2416862181625194e-03 3.3754595434715277e-03 0.0000000000000000e+00  -2.7648589438691649e-03 1.9902870656296982e-02 0.0000000000000000e+00  -3.3078422249849249e-03 1.1049712000310732e-01 0.0000000000000000e+00  -2.1808066834183358e-03 5.2787944850996730e-03 0.0000000000000000e+00  9.1889815269404866e-03 1.2700130656789385e-02 0.0000000000000000e+00  3.3132185784549659e-03 6.0678574439774211e-03 0.0000000000000000e+00  -1.2899289415873590e-02 5.6373217419916459e-02 0.0000000000000000e+00  -2.5691581185189054e-04 1.1395447520618843e-01 0.0000000000000000e+00  2.4999615443631450e-03 1.1407336954227307e-01 0.0000000000000000e+00  -2.5653286231590834e-02 8.4756316569650325e-02 0.0000000000000000e+00  -8.7535532974320658e-03 3.3408192466325634e-02 0.0000000000000000e+00  -1.2821098044728295e-02 2.2583281981349155e-02 0.0000000000000000e+00  8.7032047933897558e-03 3.3318771259799748e-02 0.0000000000000000e+00  1.2785807797849838e-02 1.0505746443114998e-01 0.0000000000000000e+00  2.7870199914512370e-02 8.5370942493285862e-02 0.0000000000000000e+00  2.1211804264059733e-02 1.0389179352499162e-01 0.0000000000000000e+00  1.4239193266632597e-02 6.3164817612160251e-02 0.0000000000000000e+00  -3.2708235820745595e-03 5.0512941594708365e-02 0.0000000000000000e+00  1.4096737602621728e-02 3.5858924788018033e-02 0.0000000000000000e+00  -1.7851162284208414e-02 3.2204858267309060e-02 0.0000000000000000e+00  -2.1529668339860815e-02 1.0289612257192268e-01 0.0000000000000000e+00  4.7819980072128137e-03 1.1428571428571428e-01 0.0000000000000000e+00  5.5303518635021933e-04 4.3505283991724604e-02 0.0000000000000000e+00  7.2151261259403325e-03 1.3473168649059068e-02 0.0000000000000000e+00  -9.5169142889187201e-03 1.0334460801909578e-01 0.0000000000000000e+00  4.0449357110159453e-03 3.7631932846566941e-02 0.0000000000000000e+00  -8.4556263647477328e-03 1.1296220295825188e-02 0.0000000000000000e+00  -2.6931653736272945e-02 7.4264529248379396e-02 0.0000000000000000e+00  -3.7365707093148333e-03 4.1218141195212006e-02 0.0000000000000000e+00  -1.6379884501508753e-03 2.7438029918009737e-02 0.0000000000000000e+00  6.4161366479771262e-03 2.6681612851801834e-02 0.0000000000000000e+00  -4.0017707757314296e-03 3.7403497324589391e-02 0.0000000000000000e+00  -8.2873160093072118e-04 4.2576806996145689e-02 0.0000000000000000e+00  -2.2482374621537699e-02 6.6326564110346070e-02 0.0000000000000000e+00  5.6955224228191024e-03 1.1058854341806565e-01 0.0000000000000000e+00  2.0073424267211339e-02 5.6442675611100501e-02 0.0000000000000000e+00  -8.5960664978109794e-03 2.7634269417179159e-02 0.0000000000000000e+00  1.1489506882805218e-02 5.4493751525296875e-02 0.0000000000000000e+00  2.6923298578034612e-02 7.9182352490613894e-02 0.0000000000000000e+00  -9.7614979690957213e-03 2.1750242528919488e-02 0.0000000000000000e+00  -9.0159124545534219e-03 1.1428571428571428e-01 0.0000000000000000e+00  1.3303543392135339e-02 2.4556377058287782e-02 0.0000000000000000e+00  -2.2853525510462786e-02 8.3104393641736551e-02 0.0000000000000000e+00  2.1105042801997858e-02 6.4844231137379901e-02 0.0000000000000000e+00  1.7798577411307141e-02 3.2104457552965829e-02 0.0000000000000000e+00  -1.4152983358601911e-02 3.5954841657541495e-02 0.0000000000000000e+00  -1.7004263103310255e-02 1.1428571428571431e-01 0.0000000000000000e+00  8.5513162870154095e-03 2.7036870664967041e-02 0.0000000000000000e+00  -6.4724081938488725e-03 1.1309275040758415e-02 0.0000000000000000e+00  5.6616139291171107e-03 2.6082082973101613e-02 0.0000000000000000e+00  -1.1815676984043134e-02 1.0427012379300861e-01 0.0000000000000000e+00  -5.6102427714903556e-03 2.6307996295387458e-02 0.0000000000000000e+00  -2.2402943861836788e-02 6.0397882963910382e-02 0.0000000000000000e+00  1.3541834928368164e-02 3.1549148396184071e-02 0.0000000000000000e+00  1.7833850471586282e-02 9.4556405527569762e-02 0.0000000000000000e+00  -1.4124061572698444e-02 3.0122196627351508e-02 0.0000000000000000e+00  -1.8129171382025525e-02 1.0273027830296479e-01 0.0000000000000000e+00  -6.7257397846101825e-04 3.1970416700750987e-02 0.0000000000000000e+00  1.5354469902987696e-04 1.4879295188903051e-03 0.0000000000000000e+00  3.8601314879185460e-03 7.9737472312035058e-03 0.0000000000000000e+00  1.6375300485503935e-02 9.4730978570385330e-02 0.0000000000000000e+00  -2.3943197798011549e-03 4.3818264900324401e-03 0.0000000000000000e+00  2.3561102124421019e-03 4.3798191449230025e-03 0.0000000000000000e+00  -1.1715334881744205e-02 1.4296664853057403e-02 0.0000000000000000e+00  6.5486483132101711e-03 8.6754552207276379e-03 0.0000000000000000e+00  8.0852260281077427e-03 3.6574118747218672e-03 0.0000000000000000e+00  -5.6215783012236991e-03 7.6869979520703229e-03 0.0000000000000000e+00  9.0148107680818870e-05 1.1230464843365455e-01 0.0000000000000000e+00  -3.7164542402369043e-03 8.1099161114508520e-03 0.0000000000000000e+00  -6.2901341786843097e-03 3.4697410198013304e-03 0.0000000000000000e+00  2.7107983254760423e-02 7.5027860242424430e-02 0.0000000000000000e+00  3.7917826151034422e-03 1.1357566227694202e-01 0.0000000000000000e+00  -2.2117200888666969e-03 1.1318960508848985e-01 0.0000000000000000e+00  1.1920754894348352e-03 1.1431087869573284e-01 0.0000000000000000e+00  -1.5930895271066694e-02 9.1552130879124796e-02 0.0000000000000000e+00  -6.8493321613802916e-03 5.0632486165586424e-02 0.0000000000000000e+00  5.3431861894828975e-04 3.3277797870723179e-02 0.0000000000000000e+00  -9.6768878467451396e-03 4.7539666144951899e-02 0.0000000000000000e+00  9.4360705840286704e-03 2.2614268784975800e-02 0.0000000000000000e+00  3.6707033403014489e-03 4.1202312610691801e-02 0.0000000000000000e+00  3.0574707073261860e-03 5.0434141122238964e-02 0.0000000000000000e+00  3.0018891891224329e-02 8.5387430421010616e-02 0.0000000000000000e+00  -1.2677130195451075e-02 1.3499202250904849e-02 0.0000000000000000e+00  1.1696553833171985e-02 1.1428571428571428e-01 0.0000000000000000e+00  -1.7011292514027269e-02 2.3086449653458956e-02 0.0000000000000000e+00  -8.4328538999339890e-03 3.6762895136344349e-02 0.0000000000000000e+00  -2.7877832050742263e-02 8.4560017075380786e-02 0.0000000000000000e+00  2.0973458329300739e-03 1.1428571428571430e-01 0.0000000000000000e+00  -1.4681924457782413e-02 6.3104781457959253e-02 0.0000000000000000e+00  4.5948642916625385e-03 7.3237043046895092e-03 0.0000000000000000e+00  1.2562769524681607e-02 1.3382549201397472e-02 0.0000000000000000e+00  1.6943502264646488e-02 2.2967359342256879e-02 0.0000000000000000e+00  -2.3838764471434608e-03 1.1428571428571430e-01 0.0000000000000000e+00  3.3412478551978441e-04 1.1428571428571430e-01 0.0000000000000000e+00  8.3770207569514640e-03 3.6684125151422241e-02 0.0000000000000000e+00  2.0002762405554278e-02 1.1428571428571427e-01 0.0000000000000000e+00  2.4478990886635719e-02 1.0305033689439366e-01 0.0000000000000000e+00  -4.7536983841232755e-03 7.3744717775095208e-03 0.0000000000000000e+00  1.7294011462236841e-02 1.0424638744163489e-01 0.0000000000000000e+00  3.2940693275114782e-03 1.2132715111000652e-02 0.0000000000000000e+00  -6.6974044137387435e-03 2.1609476248161619e-02 0.0000000000000000e+00  2.4371053355112374e-02 9.4166945721683451e-02 0.0000000000000000e+00  1.0580126266257438e-02 1.2893201543907174e-02 0.0000000000000000e+00  -2.6293879457313573e-03 3.7811965064669536e-03 0.0000000000000000e+00  -1.1046120667699317e-02 3.2659921636108223e-02 0.0000000000000000e+00  5.9969739341006485e-03 1.4592069052843654e-02 0.0000000000000000e+00  6.7571130792454335e-04 4.4563915242646825e-03 0.0000000000000000e+00  -1.3514839682774824e-02 4.4594861716182307e-02 0.0000000000000000e+00  -1.7364631976703770e-03 1.1267984174392175e-01 0.0000000000000000e+00  -4.7944869163137993e-04 1.8207277920408646e-02 0.0000000000000000e+00  1.0284239719690917e-02 1.0658905099292731e-01 0.0000000000000000e+00  -2.7084632001957806e-02 7.3819191503809722e-02 0.0000000000000000e+00  -3.3312122984271659e-03 1.1248107010629123e-02 0.0000000000000000e+00  -2.1976375874601852e-02 9.3370072268093116e-02 0.0000000000000000e+00  7.5804060059801301e-03 1.0879524382263310e-01 0.0000000000000000e+00  -4.3822873376662824e-03 6.8812997056777164e-03 0.0000000000000000e+00  -2.3989840667017093e-02 5.2832361303451668e-02 0.0000000000000000e+00  9.9520358299812813e-03 1.1090514028785921e-01 0.0000000000000000e+00  2.7218188153182690e-03 4.1172511383105754e-03 0.0000000000000000e+00  -6.7130762652068496e-03 1.4487090147930176e-02 0.0000000000000000e+00  5.0280890094960319e-03 4.9364738353760956e-02 0.0000000000000000e+00  7.9078090146377858e-03 4.5035239358536511e-02 0.0000000000000000e+00  -5.5749345462311499e-03 1.3380540718971315e-02 0.0000000000000000e+00  2.5477001908199428e-02 5.3921375140288108e-02 0.0000000000000000e+00  -9.8625283032069151e-03 1.0842238879447232e-01 0.0000000000000000e+00  -6.4997779557307506e-03 2.0707605388202672e-02 0.0000000000000000e+00  5.2711724156815146e-03 8.6535466013897486e-03 0.0000000000000000e+00  4.2207213272971826e-03 2.3355150388552910e-02 0.0000000000000000e+00  1.0878108403419859e-02 3.2766209498502979e-02 0.0000000000000000e+00  4.1033829779112650e-03 1.1294330764823955e-01 0.0000000000000000e+00  7.0796539601675609e-03 2.4643703140793977e-02 0.0000000000000000e+00  6.8112445357803456e-03 3.5059207671262374e-02 0.0000000000000000e+00  -6.8566358870657497e-03 3.5121782974198192e-02 0.0000000000000000e+00  -4.2365042649889955e-03 2.4102660274046287e-02 0.0000000000000000e+00  -2.5767844849644145e-02 7.3722188291930502e-02 0.0000000000000000e+00  2.7939646847873114e-02 7.4798984953371020e-02 0.0000000000000000e+00  2.6802728182704773e-02 6.9262322259207282e-02 0.0000000000000000e+00  -1.1186603816909517e-02 1.5667215951237105e-02 0.0000000000000000e+00  -1.7176143037236018e-02 9.2499221602220502e-02 0.0000000000000000e+00  3.0748438479842648e-04 5.6147755495833493e-04 0.0000000000000000e+00  1.3092448488389795e-02 2.0138743084013162e-02 0.0000000000000000e+00  8.7199314261242995e-05 5.4134882755273251e-03 0.0000000000000000e+00  -1.2630492592209478e-02 9.5616632641601251e-02 0.0000000000000000e+00  -2.5237419163119175e-02 6.2541841676084786e-02 0.0000000000000000e+00  2.3817189339999260e-02 5.6556392531677623e-02 0.0000000000000000e+00  -7.5311096582477491e-03 1.0840772789274773e-01 0.0000000000000000e+00  6.2912805771394584e-03 1.7010051744413310e-02 0.0000000000000000e+00  2.8485958283632169e-02 7.8267350519826806e-02 0.0000000000000000e+00  2.1182334897878543e-02 6.2114241862438767e-02 0.0000000000000000e+00  -7.2948693130833577e-03 2.5863968921326454e-