<?xml version="1.0"?>
<VTKFile type="UnstructuredGrid"  version="0.1"  >
<UnstructuredGrid>
<Piece  NumberOfPoints="5173" NumberOfCells="9966">
<Points>
<DataArray  type="Float64"  NumberOfComponents="3"  format="ascii">-0.5 0.5 0  -0.5 -0.5 0  0.5 -0.5 0  0.5 0.5 0  0.1998669600420274 0.02125869712947308 0  0.201 0 0  0.1998669600420274 -0.02125869712947312 0  0.1964806779635733 -0.04227652472592507 0  0.1908795216936763 -0.06281534240438978 0  0.1831269545709826 -0.08264243715367564 0  0.1733108162787611 -0.1015331600677681 0  0.1615423275861927 -0.1192734717077003 0  0.1479548301726135 -0.1356623672539232 0  0.1327022758130076 -0.1505141539712278 0  0.1159574820428814 -0.1636605551816338 0  0.09791017406652992 -0.1749526169063923 0  0.07876483509466403 -0.1842623955740826 0  0.05873838946792427 -0.1914844076724011 0  0.03805774481742277 -0.1965368249185042 0  0.01695722111061653 -0.1993624014061501 0  -0.004324104287555032 -0.1999291222246905 0  -0.02554510545674447 -0.1982305662008014 0  -0.04646533997422303 -0.194285978652942 0  -0.06684777322360611 -0.1881400533342067 0  -0.08646146409177112 -0.1798624260342438 0  -0.1050841816239485 -0.1695468855779342 0  -0.1225049229892384 -0.1573103111605285 0  -0.138526304226997 -0.143291348059663 0  -0.1529667966859812 -0.127648836728964 0  -0.165662783816503 -0.1105600130722386 0  -0.1764704150113143 -0.0922185002898652 0  -0.1852672354904677 -0.07283211505056446 0  -0.1919535737629032 -0.05262051284550421 0  -0.1964536709442689 -0.03181269920381437 0  -0.1987165391353524 -0.0106444349684357 0  -0.1987165391353524 0.01064443496843575 0  -0.1964536709442689 0.03181269920381442 0  -0.1919535737629032 0.05262051284550433 0  -0.1852672354904677 0.07283211505056443 0  -0.1764704150113143 0.09221850028986515 0  -0.165662783816503 0.1105600130722387 0  -0.1529667966859812 0.1276488367289641 0  -0.1385263042269969 0.1432913480596631 0  -0.1225049229892383 0.1573103111605285 0  -0.1050841816239485 0.1695468855779342 0  -0.08646146409177108 0.1798624260342438 0  -0.06684777322360606 0.1881400533342067 0  -0.04646533997422297 0.194285978652942 0  -0.02554510545674437 0.1982305662008015 0  -0.004324104287554939 0.1999291222246905 0  0.01695722111061662 0.19936240140615 0  0.03805774481742286 0.1965368249185042 0  0.05873838946792424 0.1914844076724011 0  0.07876483509466414 0.1842623955740826 0  0.09791017406653006 0.1749526169063922 0  0.1159574820428814 0.1636605551816338 0  0.1327022758130078 0.1505141539712277 0  0.1479548301726135 0.1356623672539232 0  0.1615423275861927 0.1192734717077003 0  0.1733108162787612 0.101533160067768 0  0.1831269545709827 0.08264243715367564 0  0.1908795216936763 0.06281534240438975 0  0.1964806779635734 0.04227652472592486 0  0 -0.5 0  0 0.5 0  -0.5 0 0  0.5 0 0  0.25 -0.5 0  0.25 0.5 0  0.5 0.25 0  0.5 -0.25 0  -0.25 0.5 0  -0.25 -0.5 0  -0.5 -0.25 0  -0.5 0.25 0  0.2918258229480683 0.2918258229480682 0  0.2865867850624828 -0.2932931940421196 0  -0.2962949893701896 0.274449924397287 0  -0.2913160373738303 -0.2913160373738304 0  -0.125 0.3636995408959175 0  0.3637738468862107 -0.1261303957107176 0  0.125 0.3665964626830409 0  0.3640958654762797 0.1232161970438493 0  -0.3624000654276585 -0.1218337159209422 0  -0.125 -0.3668200952157802 0  0.125 -0.3712838880907947 0  -0.3600991828528437 0.1089843577122111 0  -0.5 0.375 0  0.5 -0.375 0  -0.375 -0.5 0  0.5 0.375 0  -0.375 0.5 0  0.375 -0.5 0  -0.5 -0.375 0  0.375 0.5 0  0.0006860903712339345 -0.3306266888645853 0  -0.000109901520948898 0.3746323380112415 0  -0.5 0.125 0  -0.125 -0.5 0  -0.5 -0.125 0  0.5 0.125 0  0.5 -0.125 0  0.125 -0.5 0  -0.125 0.5 0  0.125 0.5 0  0.3748576787807123 -0.001471205609738957 0  -0.3738828512115154 0.3738828512115154 0  -0.3827617049088436 -0.006210238480157219 0  -0.2429234745416257 0.3810213699917807 0  0.3769180353829246 -0.3769180353829246 0  -0.3777687524152424 -0.3777687524152424 0  0.3780704009792175 0.3780704009792175 0  -0.1776483227107271 -0.2618630460446135 0  -0.2604485542051718 -0.1787215021996984 0  -0.1798547561877991 0.2599748505350166 0  0.3864703130478905 -0.2380123189195306 0  0.1785319646943122 0.2625417448451246 0  0.261692611046212 0.1791168901036931 0  0.2607171500730768 -0.1799460669666111 0  0.1733970740599892 -0.2651674952354912 0  -0.3880520258539732 -0.2322407641539351 0  -0.2352016482221373 -0.388638232840279 0  0.2734696242623063 0.3964265996649794 0  0.3883795026617865 0.233417864889234 0  0.2738670858792859 -0.3976331321261044 0  -0.2491638954018168 0.1780101911767213 0  -0.3926686215746083 0.2165776265637375 0  0.07109213498061834 0.2869023807262104 0  -0.2934183534017453 0.03147305416145122 0  -0.08119265072200343 -0.2826195781877594 0  0.2836913223256923 -0.07709296110799269 0  -0.0558729689268372 0.2928347535333279 0  0.2830965643121598 0.07693076420704528 0  0.08122371629649494 -0.2825469282280794 0  -0.2767834230915197 -0.08819590430941976 0  0.1875 0.4332982313415205 0  -0.04303186331845871 -0.4151376431551652 0  0.190970733019215 -0.4322714131851434 0  0.06249999999999999 -0.4356419440453974 0  0.4328061849987423 0.06633847947711793 0  0.0664712649494027 0.4332982313415205 0  -0.06249999999999998 0.4373709104419552 0  0.4341377633941729 0.309372588857957 0  -0.4374372828954266 -0.3125 0  -0.3104572497507675 -0.4353019888851174 0  0.4374701104890421 -0.3125 0  -0.3116291712721947 0.4366347031852421 0  -0.4374901042687089 0.3125 0  -0.4363926600558238 0.4363926600558238 0  -0.5 0.0625 0  0.5 -0.0625 0  0.5 -0.4375 0  -0.4375 -0.5 0  0.5 0.4375 0  -0.1875 0.5 0  -0.4323246583268963 -0.07454303397230311 0  0.2154950463309389 -0.3375719358844427 0  0.206977802238796 0.342973363124546 0  0.4322596267199844 -0.1704803839098939 0  -0.1690769129391571 -0.4334100476078901 0  0.5 0.1875 0  -0.5 -0.1875 0  0.2967149326504868 -2.965984816150069e-05 0  -0.2579082457853068 0.1006999711688991 0  -0.4261732609354634 -0.1652001701086123 0  0.4197274728231854 -0.06828306080156128 0  0.4316260558094222 0.15625 0  -0.1765935890523967 0.4225213035878151 0  -0.326101012911042 0.1780020696215199 0  -0.3639018823524438 -0.3051829074366289 0  -0.4219359613016062 0.06132313683084987 0  -0.368871881750981 0.2861301036496543 0  -0.3031928482819811 -0.3630024307590357 0  0.3125 0.5 0  0.3355547846059301 -0.437829382399898 0  0.3620936304880762 0.3078025934392096 0  -0.4265460575686851 0.1475964618934338 0  0.4375 -0.5 0  -0.5 -0.4375 0  0.4375 0.5 0  0.3587983613906559 -0.3058906763528768 0  -0.1889171018677358 -0.3331988582480375 0  0.3319769361362775 -0.1908238194547704 0  0.3337713745363715 0.4328433800405805 0  -0.3319644446835826 -0.1870886352472088 0  0.3329253892881625 0.1878611701133833 0  0.4281511341447153 -0.4281511341447153 0  -0.232840147849867 0.3093215053326949 0  -0.40625 -0.4395608850352885 0  0.428794887401249 0.428794887401249 0  -0.3380841551254475 -0.05794700007688498 0  0.008054260670409629 -0.2648994211243904 0  0.1899220001124564 -0.1947534447033338 0  -0.3080416507322476 0.3708200057439822 0  -0.06307278823153059 -0.3455430469652901 0  0.06447087227249242 -0.3459780260685607 0  0.1914876772934198 0.1922953616824615 0  0.1267822167193652 -0.4357424153550361 0  -0.1100367963981227 0.2468729543145758 0  -0.1040301628609493 -0.4382371732506554 0  0.008496887133013969 0.3088587185741126 0  -0.1939711685411953 -0.1799889819170536 0  0.1169089524024441 0.2383640108781663 0  -0.5 0.1875 0  -0.06301873836730842 0.3744639870876723 0  0.0612272731888486 0.3516549422231338 0  0.0001842875295821901 0.4373159592812666 0  0.315570863666392 0.3499038328432952 0  0.43737589643705 0.003767781375474147 0  0.3480437072584214 -0.06190943679164183 0  0.3704548124556613 0.06095691071954262 0  0.3139725644615085 -0.3495769689516506 0  0.5 -0.1875 0  -0.5 -0.0625 0  -0.5 0.3125 0  -0.1875 -0.5 0  -0.3125 0.5 0  -0.3125 -0.5 0  -0.5 -0.3125 0  0.5 0.3125 0  -0.0625 0.5 0  0.5 0.0625 0  0.0625 -0.5 0  0.1875 -0.5 0  0.3125 -0.5 0  0.1875 0.5 0  0.0625 0.5 0  0.5 -0.3125 0  -0.4375 0.5 0  -0.5 0.4375 0  -0.0625 -0.5 0  -0.3740130545720807 0.4376162026208867 0  0.2356432480937504 -0.1203529309141897 0  0.2354253261260549 0.120280228505195 0  -0.4358389466402443 0.374436564627095 0  -0.1837098359759774 0.1929485386776155 0  -0.1210077767998366 -0.2331474219302516 0  -0.4388230181844467 -0.3736756227341544 0  0.2385916116983025 -0.2446215854929363 0  0.01618154697154811 -0.392205807603664 0  0.3033224724982568 0.1345019962362828 0  0.1269856324747013 0.4273682536406486 0  -0.2618767198442009 -0.02513308225372456 0  -0.1869024341550137 0.3523407916866587 0  0.4460792014197047 0.2150519456240759 0  -0.228067921023645 -0.1261420173261541 0  0.4375111104956734 0.3693541778847931 0  -0.2344434115929863 0.441225502334267 0  -0.1349409233725989 -0.3081519167298867 0  0.2361921270004774 0.236858231392783 0  -0.1134625589296566 0.3058057213872041 0  0.1364902237265291 -0.2193600350069504 0  -0.231009496195906 -0.2899916451544192 0  -0.4420301468408164 -0.0153626464053197 0  -0.3638407636123014 0.04989392276612995 0  -0.2281634567999949 -0.2293698735254731 0  -0.2404608239114909 0.2480193450766527 0  0.1548586079872366 0.3161601351946364 0  -0.2905808065687782 -0.2309892133488608 0  0.1583090638615736 -0.3223807786382032 0  0.3037640590628244 -0.1367963242859415 0  0.441474411355182 -0.3710236808063671 0  -0.1184457037417267 0.4214861255011078 0  0.3280783743867655 -0.2503846686276005 0  0.4421147536667354 -0.254616967737483 0  -0.4419160956032748 -0.2544205585064326 0  -0.3074463395544132 -0.1359279022829991 0  0.3366964226424555 0.256991018383815 0  -0.4508616135570574 0.21875 0  -0.3395120610056381 0.2372377549435862 0  -0.2261617732606898 -0.4465036260914809 0  0.2350726063974556 0.2936290504086719 0  0.007756726855498133 0.253726523067807 0  0.2816091581197124 -0.4531847002458751 0  0.002693579241951911 -0.4452927028974097 0  0.2614770372227774 0.3432624384800261 0  0.2905620892368345 0.2263682042801985 0  -0.2876366597373845 0.2178464403043631 0  0.2807413030307
[...]
<PointData  Vectors="f_44"> 
<DataArray  type="Float64"  Name="f_44"  NumberOfComponents="3" format="ascii">1.1473646183807657e-02 1.3061224489795922e-01 0.0000000000000000e+00  -1.6603558705054772e-02 3.3446660260824893e-02 0.0000000000000000e+00  1.7480428199190844e-02 3.4462822109737647e-02 0.0000000000000000e+00  -9.5758569819203720e-03 1.3061224489795920e-01 0.0000000000000000e+00  0.0000000000000000e+00 0.0000000000000000e+00 0.0000000000000000e+00  0.0000000000000000e+00 0.0000000000000000e+00 0.0000000000000000e+00  0.0000000000000000e+00 0.0000000000000000e+00 0.0000000000000000e+00  0.0000000000000000e+00 0.0000000000000000e+00 0.0000000000000000e+00  0.0000000000000000e+00 0.0000000000000000e+00 0.0000000000000000e+00  0.0000000000000000e+00 0.0000000000000000e+00 0.0000000000000000e+00  0.0000000000000000e+00 0.0000000000000000e+00 0.0000000000000000e+00  0.0000000000000000e+00 0.0000000000000000e+00 0.0000000000000000e+00  0.0000000000000000e+00 0.0000000000000000e+00 0.0000000000000000e+00  0.0000000000000000e+00 0.0000000000000000e+00 0.0000000000000000e+00  0.0000000000000000e+00 0.0000000000000000e+00 0.0000000000000000e+00  0.0000000000000000e+00 0.0000000000000000e+00 0.0000000000000000e+00  0.0000000000000000e+00 0.0000000000000000e+00 0.0000000000000000e+00  0.0000000000000000e+00 0.0000000000000000e+00 0.0000000000000000e+00  0.0000000000000000e+00 0.0000000000000000e+00 0.0000000000000000e+00  0.0000000000000000e+00 0.0000000000000000e+00 0.0000000000000000e+00  0.0000000000000000e+00 0.0000000000000000e+00 0.0000000000000000e+00  0.0000000000000000e+00 0.0000000000000000e+00 0.0000000000000000e+00  0.0000000000000000e+00 0.0000000000000000e+00 0.0000000000000000e+00  0.0000000000000000e+00 0.0000000000000000e+00 0.0000000000000000e+00  0.0000000000000000e+00 0.0000000000000000e+00 0.0000000000000000e+00  0.0000000000000000e+00 0.0000000000000000e+00 0.0000000000000000e+00  0.0000000000000000e+00 0.0000000000000000e+00 0.0000000000000000e+00  0.0000000000000000e+00 0.0000000000000000e+00 0.0000000000000000e+00  0.0000000000000000e+00 0.0000000000000000e+00 0.0000000000000000e+00  0.0000000000000000e+00 0.0000000000000000e+00 0.0000000000000000e+00  0.0000000000000000e+00 0.0000000000000000e+00 0.0000000000000000e+00  0.0000000000000000e+00 0.0000000000000000e+00 0.0000000000000000e+00  0.0000000000000000e+00 0.0000000000000000e+00 0.0000000000000000e+00  0.0000000000000000e+00 0.0000000000000000e+00 0.0000000000000000e+00  0.0000000000000000e+00 0.0000000000000000e+00 0.0000000000000000e+00  0.0000000000000000e+00 0.0000000000000000e+00 0.0000000000000000e+00  0.0000000000000000e+00 0.0000000000000000e+00 0.0000000000000000e+00  0.0000000000000000e+00 0.0000000000000000e+00 0.0000000000000000e+00  0.0000000000000000e+00 0.0000000000000000e+00 0.0000000000000000e+00  0.0000000000000000e+00 0.0000000000000000e+00 0.0000000000000000e+00  0.0000000000000000e+00 0.0000000000000000e+00 0.0000000000000000e+00  0.0000000000000000e+00 0.0000000000000000e+00 0.0000000000000000e+00  0.0000000000000000e+00 0.0000000000000000e+00 0.0000000000000000e+00  0.0000000000000000e+00 0.0000000000000000e+00 0.0000000000000000e+00  0.0000000000000000e+00 0.0000000000000000e+00 0.0000000000000000e+00  0.0000000000000000e+00 0.0000000000000000e+00 0.0000000000000000e+00  0.0000000000000000e+00 0.0000000000000000e+00 0.0000000000000000e+00  0.0000000000000000e+00 0.0000000000000000e+00 0.0000000000000000e+00  0.0000000000000000e+00 0.0000000000000000e+00 0.0000000000000000e+00  0.0000000000000000e+00 0.0000000000000000e+00 0.0000000000000000e+00  0.0000000000000000e+00 0.0000000000000000e+00 0.0000000000000000e+00  0.0000000000000000e+00 0.0000000000000000e+00 0.0000000000000000e+00  0.0000000000000000e+00 0.0000000000000000e+00 0.0000000000000000e+00  0.0000000000000000e+00 0.0000000000000000e+00 0.0000000000000000e+00  0.0000000000000000e+00 0.0000000000000000e+00 0.0000000000000000e+00  0.0000000000000000e+00 0.0000000000000000e+00 0.0000000000000000e+00  0.0000000000000000e+00 0.0000000000000000e+00 0.0000000000000000e+00  0.0000000000000000e+00 0.0000000000000000e+00 0.0000000000000000e+00  0.0000000000000000e+00 0.0000000000000000e+00 0.0000000000000000e+00  0.0000000000000000e+00 0.0000000000000000e+00 0.0000000000000000e+00  0.0000000000000000e+00 0.0000000000000000e+00 0.0000000000000000e+00  0.0000000000000000e+00 0.0000000000000000e+00 0.0000000000000000e+00  0.0000000000000000e+00 0.0000000000000000e+00 0.0000000000000000e+00  3.2825586636871159e-04 6.3596692734640449e-03 0.0000000000000000e+00  8.4832395701424162e-04 1.3061224489795920e-01 0.0000000000000000e+00  5.3487776714835266e-03 5.5476142163882719e-02 0.0000000000000000e+00  -6.0514761405746926e-03 5.7173170530150301e-02 0.0000000000000000e+00  1.5117890820995031e-02 1.7482203506806952e-02 0.0000000000000000e+00  -2.2974670598724950e-04 1.3061224489795920e-01 0.0000000000000000e+00  -3.2221664520201955e-02 8.4977681057607335e-02 0.0000000000000000e+00  6.8084650458478902e-03 3.6820718827987174e-02 0.0000000000000000e+00  2.0403021581180871e-03 1.3061224489795920e-01 0.0000000000000000e+00  -1.4321641794180858e-02 1.7096202829562007e-02 0.0000000000000000e+00  -6.4712140731009614e-03 3.5724297428421703e-02 0.0000000000000000e+00  3.3781642692128210e-02 8.5224988893819575e-02 0.0000000000000000e+00  -1.4541153244500400e-02 1.1893896851039761e-01 0.0000000000000000e+00  7.9826395022230684e-03 1.9324498567856178e-02 0.0000000000000000e+00  2.0675989916413989e-02 1.1679878518399717e-01 0.0000000000000000e+00  -7.6074218042778601e-03 1.9371566620214040e-02 0.0000000000000000e+00  3.8136448032503318e-03 1.3060474728261509e-01 0.0000000000000000e+00  4.6758941294546266e-03 3.0845586590997103e-02 0.0000000000000000e+00  -2.2874495342648593e-03 1.3064456613258479e-01 0.0000000000000000e+00  -1.4329920457983451e-02 5.0689625711647895e-02 0.0000000000000000e+00  -4.4757112389018769e-03 3.0141666052814636e-02 0.0000000000000000e+00  -4.6236403861132491e-03 7.1464399894216194e-03 0.0000000000000000e+00  5.1616617919340163e-03 7.3547047086940306e-03 0.0000000000000000e+00  1.0716497910383985e-02 4.6056628508826240e-02 0.0000000000000000e+00  1.9216866909370207e-02 1.0267912279315551e-01 0.0000000000000000e+00  1.1129532490081039e-02 3.4511192202283061e-02 0.0000000000000000e+00  -1.6559502287257995e-02 2.6133596533156254e-02 0.0000000000000000e+00  -1.6666444817013727e-02 1.0336438892060455e-01 0.0000000000000000e+00  4.7309839731758197e-03 1.3061224489795920e-01 0.0000000000000000e+00  1.7423849216516483e-02 2.6841875487135580e-02 0.0000000000000000e+00  -1.0532898227837760e-02 3.3490318434278840e-02 0.0000000000000000e+00  -2.9779963172306390e-03 1.3061224489795920e-01 0.0000000000000000e+00  1.9045336705780387e-04 3.0315399829032252e-03 0.0000000000000000e+00  7.2976677321768429e-04 1.3060344724352266e-01 0.0000000000000000e+00  2.0738099149901896e-02 7.3239869891912598e-02 0.0000000000000000e+00  -8.2926558464777155e-03 9.3397507750374587e-03 0.0000000000000000e+00  -2.3164364089891666e-03 4.2593580208725418e-02 0.0000000000000000e+00  -2.2329841610345812e-02 7.4461325409042406e-02 0.0000000000000000e+00  2.3135993751677388e-03 4.3941466886216481e-02 0.0000000000000000e+00  9.0106054837266365e-03 9.4939288577538406e-03 0.0000000000000000e+00  1.7254165132876628e-03 1.3061224489795917e-01 0.0000000000000000e+00  7.6686465389865646e-05 1.3061224489795920e-01 0.0000000000000000e+00  -1.6630835340441410e-03 3.9654861266533357e-02 0.0000000000000000e+00  1.1159980483794201e-02 1.1447149322990016e-01 0.0000000000000000e+00  1.0976841732630441e-03 3.9662206146115903e-02 0.0000000000000000e+00  5.6556698251461575e-03 1.2799881121094103e-01 0.0000000000000000e+00  1.1116353106509397e-02 2.7027624286972186e-02 0.0000000000000000e+00  -1.0553200074019591e-02 2.6377734099528954e-02 0.0000000000000000e+00  -8.8393341317687616e-03 1.1477061355844763e-01 0.0000000000000000e+00  -4.7597692859336731e-03 8.4526483304119705e-03 0.0000000000000000e+00  -5.3322601866784350e-03 1.5700546778086591e-02 0.0000000000000000e+00  1.4854947000962198e-02 1.0399464189299299e-02 0.0000000000000000e+00  7.4172499882709268e-03 2.9814688096203766e-02 0.0000000000000000e+00  -9.1589265011742093e-03 1.2715172614818160e-01 0.0000000000000000e+00  -1.7133087330082605e-02 2.2645929758530796e-02 0.0000000000000000e+00  5.5294977584180987e-03 1.5939128071630688e-02 0.0000000000000000e+00  4.9504853446682706e-03 8.3013992874422741e-03 0.0000000000000000e+00  -6.9520540897573015e-03 2.9343387541514599e-02 0.0000000000000000e+00  -8.6358066735519635e-03 1.4949060703016041e-02 0.0000000000000000e+00  -3.3938446914003368e-03 1.2598299576703156e-01 0.0000000000000000e+00  -3.0309154566387761e-02 8.2509138584953429e-02 0.0000000000000000e+00  1.0431349422568440e-02 1.8554900885154834e-02 0.0000000000000000e+00  1.4292648087689184e-02 1.9208879335040729e-02 0.0000000000000000e+00  2.9960477604308013e-02 7.4098005087567087e-02 0.0000000000000000e+00  -2.6514532618624595e-03 1.2880818450843998e-01 0.0000000000000000e+00  1.5145146311369327e-03 2.3958840790398499e-02 0.0000000000000000e+00  -2.1644825178948530e-03 3.2934477475228302e-03 0.0000000000000000e+00  3.1442697171859308e-03 1.9374475774078890e-02 0.0000000000000000e+00  1.2624208340177253e-03 1.2632706030363791e-01 0.0000000000000000e+00  -4.7514714944532355e-03 2.3885153490208491e-02 0.0000000000000000e+00  2.3941973867742743e-03 3.3220325846350413e-03 0.0000000000000000e+00  -3.4204964484060040e-03 1.7873374329345396e-02 0.0000000000000000e+00  -9.3359306923900291e-04 1.3013472210301397e-01 0.0000000000000000e+00  -1.7994398354388265e-03 5.1138669420034274e-03 0.0000000000000000e+00  9.2638642008893331e-03 1.2392864751292502e-02 0.0000000000000000e+00  3.5528924060035621e-03 5.9601751238939939e-03 0.0000000000000000e+00  -1.0677179252633976e-02 5.6822318428892203e-02 0.0000000000000000e+00  -1.7911341644476400e-05 1.3082152182621315e-01 0.0000000000000000e+00  1.5909776025547586e-03 1.3078754809646656e-01 0.0000000000000000e+00  -2.1952386082895591e-02 9.7483551079262556e-02 0.0000000000000000e+00  -8.6299631015898052e-03 3.1198089467845441e-02 0.0000000000000000e+00  -1.2044031386880432e-02 2.1233752859016308e-02 0.0000000000000000e+00  9.1062410020079972e-03 3.2086935562842166e-02 0.0000000000000000e+00  4.0583807581498037e-03 1.2623342431671850e-01 0.0000000000000000e+00  2.4627038050983638e-02 9.6919063387383347e-02 0.0000000000000000e+00  9.5627594767283882e-03 1.1955792948745436e-01 0.0000000000000000e+00  1.1865368182191891e-02 6.4126652522377189e-02 0.0000000000000000e+00  -1.1056926973346734e-03 4.9757581682956686e-02 0.0000000000000000e+00  1.4047618238767134e-02 3.4416353751350902e-02 0.0000000000000000e+00  -1.6646971897490054e-02 3.0036586526576578e-02 0.0000000000000000e+00  -1.1338276765710262e-02 1.1678780858734365e-01 0.0000000000000000e+00  1.8655163066513727e-03 1.3061224489795920e-01 0.0000000000000000e+00  -1.6266583607912688e-03 4.1310648073162808e-02 0.0000000000000000e+00  7.3971462790814683e-03 1.3107049595399382e-02 0.0000000000000000e+00  -5.5914771994130252e-03 1.2872947831067502e-01 0.0000000000000000e+00  5.3054994158300171e-03 3.6402773348271307e-02 0.0000000000000000e+00  -7.8368351494342414e-03 1.0730715311442585e-02 0.0000000000000000e+00  -3.0947881577447791e-02 8.0769825290321423e-02 0.0000000000000000e+00  -4.5910475038043273e-03 3.8478820165114752e-02 0.0000000000000000e+00  -9.9243051080933481e-05 2.3735924869466685e-02 0.0000000000000000e+00  5.2991760621200939e-03 1.8328540094011182e-02 0.0000000000000000e+00  -5.0524256067453243e-03 3.5167038951100585e-02 0.0000000000000000e+00  1.4097155957015755e-03 4.1396598279688016e-02 0.0000000000000000e+00  -2.4229827226060430e-02 6.9997491013301202e-02 0.0000000000000000e+00  2.9764436646260019e-03 1.3041052113932558e-01 0.0000000000000000e+00  1.9345214497675609e-02 4.4071267289909573e-02 0.0000000000000000e+00  -8.4729823980822655e-03 2.5906346791816123e-02 0.0000000000000000e+00  8.3650640765779351e-03 5.2925915446540919e-02 0.0000000000000000e+00  2.4556515424027942e-02 9.8822312532213574e-02 0.0000000000000000e+00  -9.3263027921115654e-03 2.0449930234297961e-02 0.0000000000000000e+00  -1.0768093521617845e-03 1.3061224489795917e-01 0.0000000000000000e+00  1.3272533367536228e-02 2.3757252775222736e-02 0.0000000000000000e+00  -1.6828859406121843e-02 1.0630894593071528e-01 0.0000000000000000e+00  2.0747122191052146e-02 6.5945062063505075e-02 0.0000000000000000e+00  1.7521608740100544e-02 3.0899146734001362e-02 0.0000000000000000e+00  -1.3319228001238363e-02 3.3405591205104460e-02 0.0000000000000000e+00  -5.8836091452494797e-03 1.3061224489795920e-01 0.0000000000000000e+00  8.9275205127801252e-03 2.6110540796262592e-02 0.0000000000000000e+00  -6.1540030213959387e-03 1.0699021155787363e-02 0.0000000000000000e+00  6.4420992170886107e-03 2.5015225040465237e-02 0.0000000000000000e+00  -3.0722670866660203e-03 1.2454795964391874e-01 0.0000000000000000e+00  -6.1303479278344885e-03 2.4556492058768035e-02 0.0000000000000000e+00  -2.3984190854457240e-02 5.1094531963631416e-02 0.0000000000000000e+00  1.3525704231168683e-02 3.0380315479922343e-02 0.0000000000000000e+00  1.0960486349569089e-02 1.2727986711445671e-01 0.0000000000000000e+00  -1.3283903944280495e-02 2.8153336237974443e-02 0.0000000000000000e+00  -7.6301340200647634e-03 1.1889277654279488e-01 0.0000000000000000e+00  -2.3906288431231773e-03 2.9091962412475286e-02 0.0000000000000000e+00  2.6984599543714629e-04 1.4535463608378093e-03 0.0000000000000000e+00  4.0284238269634003e-03 7.6830823640199955e-03 0.0000000000000000e+00  8.1056741726788697e-03 1.2209544951508332e-01 0.0000000000000000e+00  -2.1210838605096997e-03 4.2192233086576448e-03 0.0000000000000000e+00  2.5568348059509583e-03 4.3111185269029458e-03 0.0000000000000000e+00  -1.0563056447020394e-02 7.7079913739089515e-03 0.0000000000000000e+00  6.6943631892239135e-03 8.5033831299596661e-03 0.0000000000000000e+00  6.1444717267301044e-03 2.7047918076594660e-03 0.0000000000000000e+00  -5.0918036828307839e-03 7.3628791666120446e-03 0.0000000000000000e+00  2.3979534518288876e-04 1.2974268164322145e-01 0.0000000000000000e+00  -3.7180242971208313e-03 7.5792571841451668e-03 0.0000000000000000e+00  -4.6060906066280570e-03 2.5186660144283410e-03 0.0000000000000000e+00  3.0177914832167245e-02 8.0586129595339978e-02 0.0000000000000000e+00  2.1659695208067868e-03 1.3065192463959713e-01 0.0000000000000000e+00  -9.8872265193274654e-04 1.3054779419665113e-01 0.0000000000000000e+00  8.1349788724128895e-04 1.3076916590661672e-01 0.0000000000000000e+00  -8.3174704011717924e-03 1.1910158721154608e-01 0.0000000000000000e+00  -4.1138003858795661e-03 5.0214794211881256e-02 0.0000000000000000e+00  2.3479013650702769e-03 3.1200097379564400e-02 0.0000000000000000e+00  -6.9093702649913316e-03 4.4477864131540416e-02 0.0000000000000000e+00  9.6457299421531615e-03 2.1888268081444964e-02 0.0000000000000000e+00  4.7992453088571991e-03 3.9666765193420182e-02 0.0000000000000000e+00  8.2824619281887224e-04 4.8231013618498061e-02 0.0000000000000000e+00  2.7878150358214202e-02 9.1580648336179349e-02 0.0000000000000000e+00  -1.1757494102384438e-02 1.2810753959724877e-02 0.0000000000000000e+00  2.8181843984822199e-03 1.3061224489795917e-01 0.0000000000000000e+00  -1.5874185271590551e-02 2.1707631751979428e-02 0.0000000000000000e+00  -8.3268181286188445e-03 3.4144352565571079e-02 0.0000000000000000e+00  -2.5065148118773136e-02 9.1972592030123784e-02 0.0000000000000000e+00  1.3685563665737463e-03 1.3061224489795920e-01 0.0000000000000000e+00  -1.3117717893002621e-02 6.5829177568922898e-02 0.0000000000000000e+00  4.8310698378653564e-03 7.1742776231319980e-03 0.0000000000000000e+00  1.2511261842560380e-02 1.3054781425048977e-02 0.0000000000000000e+00  1.6720926487304749e-02 2.2245614266527037e-02 0.0000000000000000e+00  -1.8922223785117783e-05 1.3061224489795920e-01 0.0000000000000000e+00  3.5993278531354849e-04 1.3061224489795920e-01 0.0000000000000000e+00  8.7933845222377977e-03 3.5186452373358025e-02 0.0000000000000000e+00  7.6864135703875302e-03 1.3061224489795920e-01 0.0000000000000000e+00  1.3410119018261377e-02 1.1633710977594620e-01 0.0000000000000000e+00  -4.1679178782188025e-03 7.1138714536953147e-03 0.0000000000000000e+00  6.2521644738328368e-03 1.2296342669031349e-01 0.0000000000000000e+00  3.5711037412144153e-03 1.1307978506846084e-02 0.0000000000000000e+00  -6.5851649743401642e-03 1.3317938170012297e-02 0.0000000000000000e+00  1.5287602286268227e-02 1.0858901569521474e-01 0.0000000000000000e+00  9.7963557304983004e-03 7.0621900351972664e-03 0.0000000000000000e+00  -2.5525403648811776e-03 3.5855556043033632e-03 0.0000000000000000e+00  -1.0569378352284950e-02 3.0469418305810889e-02 0.0000000000000000e+00  6.2865524458733139e-03 1.4084312862443060e-02 0.0000000000000000e+00  9.5041907898124037e-04 4.3681025451016361e-03 0.0000000000000000e+00  -1.2301804080741864e-02 3.3379594272089627e-02 0.0000000000000000e+00  -6.8959037830604818e-04 1.3074026499704827e-01 0.0000000000000000e+00  -1.2227049094392828e-03 1.5383974211495300e-02 0.0000000000000000e+00  5.9411589619053533e-03 1.2981585078774419e-01 0.0000000000000000e+00  -3.1391191436383477e-02 8.0830263356397536e-02 0.0000000000000000e+00  -3.4678463725414921e-03 1.0283341095539423e-02 0.0000000000000000e+00  -1.3580596068125455e-02 1.0805584154415385e-01 0.0000000000000000e+00  2.8183888846507747e-03 1.2947111258877744e-01 0.0000000000000000e+00  -4.1486133442541311e-03 6.5368254057125664e-03 0.0000000000000000e+00  -2.4756469760965877e-02 2.0559704701563333e-02 0.0000000000000000e+00  4.8003578709380559e-03 1.2996722848691492e-01 0.0000000000000000e+00  2.8428787181299007e-03 4.0208148371637794e-03 0.0000000000000000e+00  -6.5277087122239449e-03 1.3643032852638296e-02 0.0000000000000000e+00  2.1349336608395440e-03 4.7560093882283751e-02 0.0000000000000000e+00  4.7406067744884027e-03 4.0783319838820498e-02 0.0000000000000000e+00  -5.5537740752887067e-03 1.2545355647666331e-02 0.0000000000000000e+00  2.4997758393197268e-02 2.0786108176002589e-02 0.0000000000000000e+00  -5.3811374439806329e-03 1.2992953111620925e-01 0.0000000000000000e+00  -6.6227298481266210e-03 1.9381794020807898e-02 0.0000000000000000e+00  5.4489480086239959e-03 8.4561310384410181e-03 0.0000000000000000e+00  5.0562308528298208e-03 2.2058235933857400e-02 0.0000000000000000e+00  1.1058964371929153e-02 3.1535048185285020e-02 0.0000000000000000e+00  2.4294057433518340e-03 1.3078351038601990e-01 0.0000000000000000e+00  7.5996970899481443e-03 2.3760449564192231e-02 0.0000000000000000e+00  7.4944651601126450e-03 3.3792236709264241e-02 0.0000000000000000e+00  -7.1245473811058588e-03 3.2845566465821034e-02 0.0000000000000000e+00  -4.9372492778567778e-03 2.2226654796433862e-02 0.0000000000000000e+00  -2.4559582756305084e-02 9.8902030337037330e-02 0.0000000000000000e+00  3.1841019837737260e-02 8.0497113096370393e-02 0.0000000000000000e+00  3.0363001636283388e-02 6.9878483898789839e-02 0.0000000000000000e+00  -1.0438069994034684e-02 1.4813873835610419e-02 0.0000000000000000e+00  -1.1163213230515022e-02 1.2616990192793459e-01 0.0000000000000000e+00  2.7461792082052351e-04 4.0753192088163563e-04 0.0000000000000000e+00  1.3044853429491304e-02 1.9540261984604308e-02 0.0000000000000000e+00  4.3576103841528100e-04 5.2881567848847280e-03 0.0000000000000000e+00  -7.1308811874881382e-03 1.2509108375036529e-01 0.0000000000000000e+00  -2.9394742335804493e-02 3.9193203573846480e-02 0.0000000000000000e+00  2.5042636827591943e-02 3.2908467563080759e-02 0.0000000000000000e+00  -1.1530815311330317e-03 1.2821371674879314e-01 0.0000000000000000e+00  6.1901918825247489e-03 9.8231280252788784e-03 0.0000000000000000e+00  3.0844551085538831e-02 8.7694057033081738e-02 0.0000000000000000e+00  2.0613536931291507e-02 5.8897826856622974e-02 0.0000000000000000e+00  -7.4105043649680593e-03 2.4247369854840092e-02 