<?xml version="1.0"?>
<VTKFile type="UnstructuredGrid"  version="0.1"  >
<UnstructuredGrid>
<Piece  NumberOfPoints="5173" NumberOfCells="9966">
<Points>
<DataArray  type="Float64"  NumberOfComponents="3"  format="ascii">-0.5 0.5 0  -0.5 -0.5 0  0.5 -0.5 0  0.5 0.5 0  0.1998669600420274 0.02125869712947308 0  0.201 0 0  0.1998669600420274 -0.02125869712947312 0  0.1964806779635733 -0.04227652472592507 0  0.1908795216936763 -0.06281534240438978 0  0.1831269545709826 -0.08264243715367564 0  0.1733108162787611 -0.1015331600677681 0  0.1615423275861927 -0.1192734717077003 0  0.1479548301726135 -0.1356623672539232 0  0.1327022758130076 -0.1505141539712278 0  0.1159574820428814 -0.1636605551816338 0  0.09791017406652992 -0.1749526169063923 0  0.07876483509466403 -0.1842623955740826 0  0.05873838946792427 -0.1914844076724011 0  0.03805774481742277 -0.1965368249185042 0  0.01695722111061653 -0.1993624014061501 0  -0.004324104287555032 -0.1999291222246905 0  -0.02554510545674447 -0.1982305662008014 0  -0.04646533997422303 -0.194285978652942 0  -0.06684777322360611 -0.1881400533342067 0  -0.08646146409177112 -0.1798624260342438 0  -0.1050841816239485 -0.1695468855779342 0  -0.1225049229892384 -0.1573103111605285 0  -0.138526304226997 -0.143291348059663 0  -0.1529667966859812 -0.127648836728964 0  -0.165662783816503 -0.1105600130722386 0  -0.1764704150113143 -0.0922185002898652 0  -0.1852672354904677 -0.07283211505056446 0  -0.1919535737629032 -0.05262051284550421 0  -0.1964536709442689 -0.03181269920381437 0  -0.1987165391353524 -0.0106444349684357 0  -0.1987165391353524 0.01064443496843575 0  -0.1964536709442689 0.03181269920381442 0  -0.1919535737629032 0.05262051284550433 0  -0.1852672354904677 0.07283211505056443 0  -0.1764704150113143 0.09221850028986515 0  -0.165662783816503 0.1105600130722387 0  -0.1529667966859812 0.1276488367289641 0  -0.1385263042269969 0.1432913480596631 0  -0.1225049229892383 0.1573103111605285 0  -0.1050841816239485 0.1695468855779342 0  -0.08646146409177108 0.1798624260342438 0  -0.06684777322360606 0.1881400533342067 0  -0.04646533997422297 0.194285978652942 0  -0.02554510545674437 0.1982305662008015 0  -0.004324104287554939 0.1999291222246905 0  0.01695722111061662 0.19936240140615 0  0.03805774481742286 0.1965368249185042 0  0.05873838946792424 0.1914844076724011 0  0.07876483509466414 0.1842623955740826 0  0.09791017406653006 0.1749526169063922 0  0.1159574820428814 0.1636605551816338 0  0.1327022758130078 0.1505141539712277 0  0.1479548301726135 0.1356623672539232 0  0.1615423275861927 0.1192734717077003 0  0.1733108162787612 0.101533160067768 0  0.1831269545709827 0.08264243715367564 0  0.1908795216936763 0.06281534240438975 0  0.1964806779635734 0.04227652472592486 0  0 -0.5 0  0 0.5 0  -0.5 0 0  0.5 0 0  0.25 -0.5 0  0.25 0.5 0  0.5 0.25 0  0.5 -0.25 0  -0.25 0.5 0  -0.25 -0.5 0  -0.5 -0.25 0  -0.5 0.25 0  0.2918258229480683 0.2918258229480682 0  0.2865867850624828 -0.2932931940421196 0  -0.2962949893701896 0.274449924397287 0  -0.2913160373738303 -0.2913160373738304 0  -0.125 0.3636995408959175 0  0.3637738468862107 -0.1261303957107176 0  0.125 0.3665964626830409 0  0.3640958654762797 0.1232161970438493 0  -0.3624000654276585 -0.1218337159209422 0  -0.125 -0.3668200952157802 0  0.125 -0.3712838880907947 0  -0.3600991828528437 0.1089843577122111 0  -0.5 0.375 0  0.5 -0.375 0  -0.375 -0.5 0  0.5 0.375 0  -0.375 0.5 0  0.375 -0.5 0  -0.5 -0.375 0  0.375 0.5 0  0.0006860903712339345 -0.3306266888645853 0  -0.000109901520948898 0.3746323380112415 0  -0.5 0.125 0  -0.125 -0.5 0  -0.5 -0.125 0  0.5 0.125 0  0.5 -0.125 0  0.125 -0.5 0  -0.125 0.5 0  0.125 0.5 0  0.3748576787807123 -0.001471205609738957 0  -0.3738828512115154 0.3738828512115154 0  -0.3827617049088436 -0.006210238480157219 0  -0.2429234745416257 0.3810213699917807 0  0.3769180353829246 -0.3769180353829246 0  -0.3777687524152424 -0.3777687524152424 0  0.3780704009792175 0.3780704009792175 0  -0.1776483227107271 -0.2618630460446135 0  -0.2604485542051718 -0.1787215021996984 0  -0.1798547561877991 0.2599748505350166 0  0.3864703130478905 -0.2380123189195306 0  0.1785319646943122 0.2625417448451246 0  0.261692611046212 0.1791168901036931 0  0.2607171500730768 -0.1799460669666111 0  0.1733970740599892 -0.2651674952354912 0  -0.3880520258539732 -0.2322407641539351 0  -0.2352016482221373 -0.388638232840279 0  0.2734696242623063 0.3964265996649794 0  0.3883795026617865 0.233417864889234 0  0.2738670858792859 -0.3976331321261044 0  -0.2491638954018168 0.1780101911767213 0  -0.3926686215746083 0.2165776265637375 0  0.07109213498061834 0.2869023807262104 0  -0.2934183534017453 0.03147305416145122 0  -0.08119265072200343 -0.2826195781877594 0  0.2836913223256923 -0.07709296110799269 0  -0.0558729689268372 0.2928347535333279 0  0.2830965643121598 0.07693076420704528 0  0.08122371629649494 -0.2825469282280794 0  -0.2767834230915197 -0.08819590430941976 0  0.1875 0.4332982313415205 0  -0.04303186331845871 -0.4151376431551652 0  0.190970733019215 -0.4322714131851434 0  0.06249999999999999 -0.4356419440453974 0  0.4328061849987423 0.06633847947711793 0  0.0664712649494027 0.4332982313415205 0  -0.06249999999999998 0.4373709104419552 0  0.4341377633941729 0.309372588857957 0  -0.4374372828954266 -0.3125 0  -0.3104572497507675 -0.4353019888851174 0  0.4374701104890421 -0.3125 0  -0.3116291712721947 0.4366347031852421 0  -0.4374901042687089 0.3125 0  -0.4363926600558238 0.4363926600558238 0  -0.5 0.0625 0  0.5 -0.0625 0  0.5 -0.4375 0  -0.4375 -0.5 0  0.5 0.4375 0  -0.1875 0.5 0  -0.4323246583268963 -0.07454303397230311 0  0.2154950463309389 -0.3375719358844427 0  0.206977802238796 0.342973363124546 0  0.4322596267199844 -0.1704803839098939 0  -0.1690769129391571 -0.4334100476078901 0  0.5 0.1875 0  -0.5 -0.1875 0  0.2967149326504868 -2.965984816150069e-05 0  -0.2579082457853068 0.1006999711688991 0  -0.4261732609354634 -0.1652001701086123 0  0.4197274728231854 -0.06828306080156128 0  0.4316260558094222 0.15625 0  -0.1765935890523967 0.4225213035878151 0  -0.326101012911042 0.1780020696215199 0  -0.3639018823524438 -0.3051829074366289 0  -0.4219359613016062 0.06132313683084987 0  -0.368871881750981 0.2861301036496543 0  -0.3031928482819811 -0.3630024307590357 0  0.3125 0.5 0  0.3355547846059301 -0.437829382399898 0  0.3620936304880762 0.3078025934392096 0  -0.4265460575686851 0.1475964618934338 0  0.4375 -0.5 0  -0.5 -0.4375 0  0.4375 0.5 0  0.3587983613906559 -0.3058906763528768 0  -0.1889171018677358 -0.3331988582480375 0  0.3319769361362775 -0.1908238194547704 0  0.3337713745363715 0.4328433800405805 0  -0.3319644446835826 -0.1870886352472088 0  0.3329253892881625 0.1878611701133833 0  0.4281511341447153 -0.4281511341447153 0  -0.232840147849867 0.3093215053326949 0  -0.40625 -0.4395608850352885 0  0.428794887401249 0.428794887401249 0  -0.3380841551254475 -0.05794700007688498 0  0.008054260670409629 -0.2648994211243904 0  0.1899220001124564 -0.1947534447033338 0  -0.3080416507322476 0.3708200057439822 0  -0.06307278823153059 -0.3455430469652901 0  0.06447087227249242 -0.3459780260685607 0  0.1914876772934198 0.1922953616824615 0  0.1267822167193652 -0.4357424153550361 0  -0.1100367963981227 0.2468729543145758 0  -0.1040301628609493 -0.4382371732506554 0  0.008496887133013969 0.3088587185741126 0  -0.1939711685411953 -0.1799889819170536 0  0.1169089524024441 0.2383640108781663 0  -0.5 0.1875 0  -0.06301873836730842 0.3744639870876723 0  0.0612272731888486 0.3516549422231338 0  0.0001842875295821901 0.4373159592812666 0  0.315570863666392 0.3499038328432952 0  0.43737589643705 0.003767781375474147 0  0.3480437072584214 -0.06190943679164183 0  0.3704548124556613 0.06095691071954262 0  0.3139725644615085 -0.3495769689516506 0  0.5 -0.1875 0  -0.5 -0.0625 0  -0.5 0.3125 0  -0.1875 -0.5 0  -0.3125 0.5 0  -0.3125 -0.5 0  -0.5 -0.3125 0  0.5 0.3125 0  -0.0625 0.5 0  0.5 0.0625 0  0.0625 -0.5 0  0.1875 -0.5 0  0.3125 -0.5 0  0.1875 0.5 0  0.0625 0.5 0  0.5 -0.3125 0  -0.4375 0.5 0  -0.5 0.4375 0  -0.0625 -0.5 0  -0.3740130545720807 0.4376162026208867 0  0.2356432480937504 -0.1203529309141897 0  0.2354253261260549 0.120280228505195 0  -0.4358389466402443 0.374436564627095 0  -0.1837098359759774 0.1929485386776155 0  -0.1210077767998366 -0.2331474219302516 0  -0.4388230181844467 -0.3736756227341544 0  0.2385916116983025 -0.2446215854929363 0  0.01618154697154811 -0.392205807603664 0  0.3033224724982568 0.1345019962362828 0  0.1269856324747013 0.4273682536406486 0  -0.2618767198442009 -0.02513308225372456 0  -0.1869024341550137 0.3523407916866587 0  0.4460792014197047 0.2150519456240759 0  -0.228067921023645 -0.1261420173261541 0  0.4375111104956734 0.3693541778847931 0  -0.2344434115929863 0.441225502334267 0  -0.1349409233725989 -0.3081519167298867 0  0.2361921270004774 0.236858231392783 0  -0.1134625589296566 0.3058057213872041 0  0.1364902237265291 -0.2193600350069504 0  -0.231009496195906 -0.2899916451544192 0  -0.4420301468408164 -0.0153626464053197 0  -0.3638407636123014 0.04989392276612995 0  -0.2281634567999949 -0.2293698735254731 0  -0.2404608239114909 0.2480193450766527 0  0.1548586079872366 0.3161601351946364 0  -0.2905808065687782 -0.2309892133488608 0  0.1583090638615736 -0.3223807786382032 0  0.3037640590628244 -0.1367963242859415 0  0.441474411355182 -0.3710236808063671 0  -0.1184457037417267 0.4214861255011078 0  0.3280783743867655 -0.2503846686276005 0  0.4421147536667354 -0.254616967737483 0  -0.4419160956032748 -0.2544205585064326 0  -0.3074463395544132 -0.1359279022829991 0  0.3366964226424555 0.256991018383815 0  -0.4508616135570574 0.21875 0  -0.3395120610056381 0.2372377549435862 0  -0.2261617732606898 -0.4465036260914809 0  0.2350726063974556 0.2936290504086719 0  0.007756726855498133 0.253726523067807 0  0.2816091581197124 -0.4531847002458751 0  0.002693579241951911 -0.4452927028974097 0  0.2614770372227774 0.3432624384800261 0  0.2905620892368345 0.2263682042801985 0  -0.2876366597373845 0.2178464403043631 0  0.2807413030307
[...]
<PointData  Vectors="f_44"> 
<DataArray  type="Float64"  Name="f_44"  NumberOfComponents="3" format="ascii">2.2151182950398668e-02 5.3061224489795916e-02 0.0000000000000000e+00  -8.9254290075990068e-03 1.8017274351819320e-02 0.0000000000000000e+00  8.6950808497176565e-03 1.7695206308747258e-02 0.0000000000000000e+00  -2.2083809618561798e-02 5.3061224489795916e-02 0.0000000000000000e+00  0.0000000000000000e+00 0.0000000000000000e+00 0.0000000000000000e+00  0.0000000000000000e+00 0.0000000000000000e+00 0.0000000000000000e+00  0.0000000000000000e+00 0.0000000000000000e+00 0.0000000000000000e+00  0.0000000000000000e+00 0.0000000000000000e+00 0.0000000000000000e+00  0.0000000000000000e+00 0.0000000000000000e+00 0.0000000000000000e+00  0.0000000000000000e+00 0.0000000000000000e+00 0.0000000000000000e+00  0.0000000000000000e+00 0.0000000000000000e+00 0.0000000000000000e+00  0.0000000000000000e+00 0.0000000000000000e+00 0.0000000000000000e+00  0.0000000000000000e+00 0.0000000000000000e+00 0.0000000000000000e+00  0.0000000000000000e+00 0.0000000000000000e+00 0.0000000000000000e+00  0.0000000000000000e+00 0.0000000000000000e+00 0.0000000000000000e+00  0.0000000000000000e+00 0.0000000000000000e+00 0.0000000000000000e+00  0.0000000000000000e+00 0.0000000000000000e+00 0.0000000000000000e+00  0.0000000000000000e+00 0.0000000000000000e+00 0.0000000000000000e+00  0.0000000000000000e+00 0.0000000000000000e+00 0.0000000000000000e+00  0.0000000000000000e+00 0.0000000000000000e+00 0.0000000000000000e+00  0.0000000000000000e+00 0.0000000000000000e+00 0.0000000000000000e+00  0.0000000000000000e+00 0.0000000000000000e+00 0.0000000000000000e+00  0.0000000000000000e+00 0.0000000000000000e+00 0.0000000000000000e+00  0.0000000000000000e+00 0.0000000000000000e+00 0.0000000000000000e+00  0.0000000000000000e+00 0.0000000000000000e+00 0.0000000000000000e+00  0.0000000000000000e+00 0.0000000000000000e+00 0.0000000000000000e+00  0.0000000000000000e+00 0.0000000000000000e+00 0.0000000000000000e+00  0.0000000000000000e+00 0.0000000000000000e+00 0.0000000000000000e+00  0.0000000000000000e+00 0.0000000000000000e+00 0.0000000000000000e+00  0.0000000000000000e+00 0.0000000000000000e+00 0.0000000000000000e+00  0.0000000000000000e+00 0.0000000000000000e+00 0.0000000000000000e+00  0.0000000000000000e+00 0.0000000000000000e+00 0.0000000000000000e+00  0.0000000000000000e+00 0.0000000000000000e+00 0.0000000000000000e+00  0.0000000000000000e+00 0.0000000000000000e+00 0.0000000000000000e+00  0.0000000000000000e+00 0.0000000000000000e+00 0.0000000000000000e+00  0.0000000000000000e+00 0.0000000000000000e+00 0.0000000000000000e+00  0.0000000000000000e+00 0.0000000000000000e+00 0.0000000000000000e+00  0.0000000000000000e+00 0.0000000000000000e+00 0.0000000000000000e+00  0.0000000000000000e+00 0.0000000000000000e+00 0.0000000000000000e+00  0.0000000000000000e+00 0.0000000000000000e+00 0.0000000000000000e+00  0.0000000000000000e+00 0.0000000000000000e+00 0.0000000000000000e+00  0.0000000000000000e+00 0.0000000000000000e+00 0.0000000000000000e+00  0.0000000000000000e+00 0.0000000000000000e+00 0.0000000000000000e+00  0.0000000000000000e+00 0.0000000000000000e+00 0.0000000000000000e+00  0.0000000000000000e+00 0.0000000000000000e+00 0.0000000000000000e+00  0.0000000000000000e+00 0.0000000000000000e+00 0.0000000000000000e+00  0.0000000000000000e+00 0.0000000000000000e+00 0.0000000000000000e+00  0.0000000000000000e+00 0.0000000000000000e+00 0.0000000000000000e+00  0.0000000000000000e+00 0.0000000000000000e+00 0.0000000000000000e+00  0.0000000000000000e+00 0.0000000000000000e+00 0.0000000000000000e+00  0.0000000000000000e+00 0.0000000000000000e+00 0.0000000000000000e+00  0.0000000000000000e+00 0.0000000000000000e+00 0.0000000000000000e+00  0.0000000000000000e+00 0.0000000000000000e+00 0.0000000000000000e+00  0.0000000000000000e+00 0.0000000000000000e+00 0.0000000000000000e+00  0.0000000000000000e+00 0.0000000000000000e+00 0.0000000000000000e+00  0.0000000000000000e+00 0.0000000000000000e+00 0.0000000000000000e+00  0.0000000000000000e+00 0.0000000000000000e+00 0.0000000000000000e+00  0.0000000000000000e+00 0.0000000000000000e+00 0.0000000000000000e+00  0.0000000000000000e+00 0.0000000000000000e+00 0.0000000000000000e+00  0.0000000000000000e+00 0.0000000000000000e+00 0.0000000000000000e+00  0.0000000000000000e+00 0.0000000000000000e+00 0.0000000000000000e+00  0.0000000000000000e+00 0.0000000000000000e+00 0.0000000000000000e+00  0.0000000000000000e+00 0.0000000000000000e+00 0.0000000000000000e+00  -1.2417654466908624e-04 3.2034936657354702e-03 0.0000000000000000e+00  9.6426980740704226e-05 5.3061224489795930e-02 0.0000000000000000e+00  4.4354883383110229e-03 2.8020364644300341e-02 0.0000000000000000e+00  -4.4053058545339410e-03 2.7765977950047212e-02 0.0000000000000000e+00  7.4585265892352249e-03 8.8291064863423481e-03 0.0000000000000000e+00  -1.5489261316683184e-02 5.3061224489795923e-02 0.0000000000000000e+00  -1.6858181372189744e-02 4.0340399281677042e-02 0.0000000000000000e+00  2.8820243564357164e-03 1.8917407394373632e-02 0.0000000000000000e+00  1.5613847294015678e-02 5.3061224489795923e-02 0.0000000000000000e+00  -7.7016512830944354e-03 9.0031413227555836e-03 0.0000000000000000e+00  -2.9646845462285272e-03 1.9234712574027080e-02 0.0000000000000000e+00  1.6905270912505297e-02 4.0487070970813506e-02 0.0000000000000000e+00  -1.4340396419225012e-02 3.3235814760262952e-02 0.0000000000000000e+00  3.6973119092934561e-03 9.8147793408109325e-03 0.0000000000000000e+00  1.3987747941946330e-02 3.2154889014950852e-02 0.0000000000000000e+00  -3.8123945411384134e-03 1.0265783873039846e-02 0.0000000000000000e+00  8.7129675762716331e-03 3.2764037680940203e-02 0.0000000000000000e+00  1.4245660518192259e-03 1.5892441450542565e-02 0.0000000000000000e+00  -8.5743431250221696e-03 3.3117681447322828e-02 0.0000000000000000e+00  -8.3657091138980479e-03 2.6036180140084738e-02 0.0000000000000000e+00  -1.3534852208338831e-03 1.6147378631654014e-02 0.0000000000000000e+00  -2.5096116334981226e-03 3.7094981293009682e-03 0.0000000000000000e+00  2.3943512303398382e-03 3.6657452924081790e-03 0.0000000000000000e+00  7.5936611369899062e-03 2.5148505577793100e-02 0.0000000000000000e+00  2.0861717352101031e-02 4.6631960487012389e-02 0.0000000000000000e+00  5.3208936404874558e-03 1.7729755636484282e-02 0.0000000000000000e+00  -8.8918252384386463e-03 1.3926725572911781e-02 0.0000000000000000e+00  -2.0806585516564988e-02 4.6555248153154108e-02 0.0000000000000000e+00  1.9681541854290364e-02 5.3061224489795916e-02 0.0000000000000000e+00  8.6570927510652654e-03 1.3679246931743307e-02 0.0000000000000000e+00  -5.4761404735748816e-03 1.8051729652903335e-02 0.0000000000000000e+00  -1.9596946498933513e-02 5.3061224489795923e-02 0.0000000000000000e+00  -5.3066913840745768e-05 1.5176136740967323e-03 0.0000000000000000e+00  9.8212805862521639e-05 3.1823119404317361e-02 0.0000000000000000e+00  1.0774011727001964e-02 3.4321035810292201e-02 0.0000000000000000e+00  -4.5639962721795635e-03 4.8364159076768019e-03 0.0000000000000000e+00  -1.4230098802942999e-04 2.2599974919474589e-02 0.0000000000000000e+00  -1.0731276298878850e-02 3.4118111922907784e-02 0.0000000000000000e+00  1.2724014028904989e-04 2.2309452893826791e-02 0.0000000000000000e+00  4.3248460038866378e-03 4.7495131164247261e-03 0.0000000000000000e+00  9.0177796098670493e-03 5.3061224489795923e-02 0.0000000000000000e+00  -8.8532528444099663e-03 5.3061224489795930e-02 0.0000000000000000e+00  -2.5087850293372491e-03 2.0597960307039326e-02 0.0000000000000000e+00  1.8480081624959191e-02 4.3481582970944101e-02 0.0000000000000000e+00  2.4761343570184691e-03 2.1208783114942967e-02 0.0000000000000000e+00  1.4666928184664417e-02 3.9780870808941902e-02 0.0000000000000000e+00  5.3266400976997056e-03 1.3773798224049692e-02 0.0000000000000000e+00  -5.5031214938874359e-03 1.4055748456839264e-02 0.0000000000000000e+00  -1.8572105635613120e-02 4.3829325954456558e-02 0.0000000000000000e+00  -2.4137557696758097e-03 4.4415749405658919e-03 0.0000000000000000e+00  -2.4600991334771099e-03 8.4230125465772111e-03 0.0000000000000000e+00  9.7110981148671657e-03 2.1883762171841573e-02 0.0000000000000000e+00  3.1859177893812144e-03 1.5210249318172369e-02 0.0000000000000000e+00  -9.6272321393889287e-03 2.1906271581387363e-02 0.0000000000000000e+00  -8.8842869383357597e-03 2.1148873057631263e-02 0.0000000000000000e+00  2.4241097024430489e-03 8.2259687096766700e-03 0.0000000000000000e+00  2.2909788867555353e-03 4.1748660571183779e-03 0.0000000000000000e+00  -3.1654561084894176e-03 1.5616745298274585e-02 0.0000000000000000e+00  -4.5741726559192898e-03 7.8687889044268509e-03 0.0000000000000000e+00  -1.5869476072761377e-02 4.2358995045665086e-02 0.0000000000000000e+00  -1.4288973931675105e-02 3.4291075016124752e-02 0.0000000000000000e+00  5.0244579232558446e-03 9.3871886104209459e-03 0.0000000000000000e+00  8.5154952420453244e-03 2.0000826068704652e-02 0.0000000000000000e+00  1.3677481894156747e-02 3.3629843960935532e-02 0.0000000000000000e+00  -4.5428142046165156e-03 1.7833599630084421e-02 0.0000000000000000e+00  2.3864031883932602e-03 1.4987475678228860e-02 0.0000000000000000e+00  -1.1619209507826005e-03 1.7013382146173182e-03 0.0000000000000000e+00  9.5899166499838131e-04 1.0532574389483546e-02 0.0000000000000000e+00  3.7954649518459572e-03 1.8302525330502001e-02 0.0000000000000000e+00  -4.0895722897054841e-03 1.5948474242870221e-02 0.0000000000000000e+00  1.0637319588455718e-03 1.6462796737437787e-03 0.0000000000000000e+00  -1.1930543708107573e-03 9.9950207648471720e-03 0.0000000000000000e+00  -1.2409405633551829e-02 4.4352266149875023e-02 0.0000000000000000e+00  -1.1409620855999556e-03 2.5960296693297623e-03 0.0000000000000000e+00  4.4589359071941677e-03 6.2227778869065643e-03 0.0000000000000000e+00  1.5626605188161732e-03 2.9667755786070668e-03 0.0000000000000000e+00  -6.6012926250957130e-03 2.7480089849730799e-02 0.0000000000000000e+00  -4.8349441978335055e-03 4.2247051837120443e-02 0.0000000000000000e+00  4.7359160718760725e-03 4.2889893173150714e-02 0.0000000000000000e+00  -1.7980195239239685e-02 4.1032467452195749e-02 0.0000000000000000e+00  -4.3144160676261570e-03 1.6695244861371344e-02 0.0000000000000000e+00  -6.4109548933926576e-03 1.1249580285180411e-02 0.0000000000000000e+00  4.1962607575394030e-03 1.6409871094496129e-02 0.0000000000000000e+00  1.7644377775639344e-02 4.7211698352988565e-02 0.0000000000000000e+00  1.8204652263513449e-02 4.1455065045441927e-02 0.0000000000000000e+00  2.0719731236315635e-02 4.9032252332003125e-02 0.0000000000000000e+00  7.4731854545306894e-03 3.1149384003830227e-02 0.0000000000000000e+00  -1.8627572834372171e-03 2.4832439277620473e-02 0.0000000000000000e+00  6.8796478443260700e-03 1.7673044994190812e-02 0.0000000000000000e+00  -8.9464055225421408e-03 1.6097862955581795e-02 0.0000000000000000e+00  -2.1766585280090456e-02 4.9772021575520201e-02 0.0000000000000000e+00  1.2670139223527320e-02 5.3061224489795916e-02 0.0000000000000000e+00  6.3586855286432468e-04 2.1647209912431440e-02 0.0000000000000000e+00  3.4866602832143074e-03 6.6042797557272406e-03 0.0000000000000000e+00  -1.2573179462242887e-02 3.3731269698370175e-02 0.0000000000000000e+00  1.8244910305192400e-03 1.8526369058240771e-02 0.0000000000000000e+00  -4.2470355437089777e-03 5.6007677513202061e-03 0.0000000000000000e+00  -1.3977032757496533e-02 3.7258556518047430e-02 0.0000000000000000e+00  -1.6933719031183025e-03 2.0625060340904101e-02 0.0000000000000000e+00  -1.2375931715756482e-03 1.3754412567294217e-02 0.0000000000000000e+00  4.5779162544713212e-03 1.4735926782189608e-02 0.0000000000000000e+00  -1.7915812890979303e-03 1.8658261828437508e-02 0.0000000000000000e+00  -6.7942883441499732e-04 2.0930348089088842e-02 0.0000000000000000e+00  -1.1305633308389509e-02 3.2104680262643209e-02 0.0000000000000000e+00  1.1933532182214171e-02 4.2736510462151066e-02 0.0000000000000000e+00  1.0506169095712238e-02 2.6876591580324665e-02 0.0000000000000000e+00  -4.2353088781193985e-03 1.3782005066764896e-02 0.0000000000000000e+00  6.2206961791413332e-03 2.6818004917318099e-02 0.0000000000000000e+00  1.6033780610506098e-02 3.6973272760904986e-02 0.0000000000000000e+00  -4.8555802425753851e-03 1.0831583416357114e-02 0.0000000000000000e+00  -1.7809432941901265e-02 5.3061224489795916e-02 0.0000000000000000e+00  6.4879223893803874e-03 1.2072716258997097e-02 0.0000000000000000e+00  -1.6514264923179488e-02 3.8084592416276916e-02 0.0000000000000000e+00  1.0821991004916811e-02 3.1543777289596731e-02 0.0000000000000000e+00  8.7146429723826430e-03 1.5810822778967417e-02 0.0000000000000000e+00  -7.0741775375952913e-03 1.7997632525973459e-02 0.0000000000000000e+00  -2.0980781960986697e-02 5.3061224489795923e-02 0.0000000000000000e+00  4.1241904314522149e-03 1.3298535672662570e-02 0.0000000000000000e+00  -3.2213531926518183e-03 5.6119037031414120e-03 0.0000000000000000e+00  2.6630646131981131e-03 1.2836696240730470e-02 0.0000000000000000e+00  -1.8174718884964056e-02 4.7211000555767650e-02 0.0000000000000000e+00  -2.6568818884110221e-03 1.3116744698506365e-02 0.0000000000000000e+00  -1.1085428510681535e-02 2.7861112528892687e-02 0.0000000000000000e+00  6.6047332893056495e-03 1.5535175263931158e-02 0.0000000000000000e+00  1.3067226316434253e-02 3.1512870553223542e-02 0.0000000000000000e+00  -7.0608212068154780e-03 1.5044462134970458e-02 0.0000000000000000e+00  -2.0416019384135613e-02 4.8395756544634370e-02 0.0000000000000000e+00  3.1430709519488378e-05 1.6008847003269492e-02 0.0000000000000000e+00  5.2680599677571737e-05 7.2770295643103289e-04 0.0000000000000000e+00  1.8510937957242506e-03 3.9080286111542756e-03 0.0000000000000000e+00  1.6721173706373414e-02 4.1139516096629289e-02 0.0000000000000000e+00  -1.2219386286982071e-03 2.1587049477282357e-03 0.0000000000000000e+00  1.1081359542734039e-03 2.1377929835588059e-03 0.0000000000000000e+00  -7.0451113983965108e-03 1.4643079566184040e-02 0.0000000000000000e+00  3.1574174393190274e-03 4.2439906293685490e-03 0.0000000000000000e+00  5.9389315954930079e-03 1.3863995995742076e-02 0.0000000000000000e+00  -2.8473363828907879e-03 3.7984069673438273e-03 0.0000000000000000e+00  -5.1016690458252233e-04 2.0131271838733877e-02 0.0000000000000000e+00  -1.8050002683274887e-03 4.0268081840854307e-03 0.0000000000000000e+00  -5.8597469896600569e-03 1.2918311019724134e-02 0.0000000000000000e+00  1.4021325706638700e-02 3.7433192618905702e-02 0.0000000000000000e+00  4.6982686941342373e-03 3.2530471756383815e-02 0.0000000000000000e+00  -4.3373098284661482e-03 2.8588918199622882e-02 0.0000000000000000e+00  8.2321316848445620e-05 4.2551313825706871e-02 0.0000000000000000e+00  -1.6450538794942682e-02 3.9481263708014962e-02 0.0000000000000000e+00  -3.6747348536447537e-03 2.4804585170637872e-02 0.0000000000000000e+00  -1.8045000781478937e-05 1.6424213430031365e-02 0.0000000000000000e+00  -5.2667553257242546e-03 2.3129460807514681e-02 0.0000000000000000e+00  4.5723579872565014e-03 1.1112805455659912e-02 0.0000000000000000e+00  1.6543553658428212e-03 2.0315392237779201e-02 0.0000000000000000e+00  1.8768857716803143e-03 2.5109588995004525e-02 0.0000000000000000e+00  1.9219279311957205e-02 4.3529866920100288e-02 0.0000000000000000e+00  -6.3619714074115794e-03 6.6980457785752751e-03 0.0000000000000000e+00  1.7914900995740401e-02 5.3061224489795923e-02 0.0000000000000000e+00  -8.5217773565778084e-03 1.1501363328224058e-02 0.0000000000000000e+00  -4.1539468724866094e-03 1.8407846728223175e-02 0.0000000000000000e+00  -1.9165728193421369e-02 4.3415170104509793e-02 0.0000000000000000e+00  4.7487400636538508e-03 5.3061224489795923e-02 0.0000000000000000e+00  -7.4345344870341357e-03 3.0919912202104979e-02 0.0000000000000000e+00  2.1840117854254413e-03 3.5863014032376144e-03 0.0000000000000000e+00  6.1191753042997713e-03 6.5599703593016093e-03 0.0000000000000000e+00  8.2875146428517746e-03 1.1287597937937967e-02 0.0000000000000000e+00  -1.2520477444382477e-02 5.3061224489795930e-02 0.0000000000000000e+00  -4.5621575457443194e-03 5.3061224489795923e-02 0.0000000000000000e+00  4.0344314533028152e-03 1.8086157469606783e-02 0.0000000000000000e+00  2.1057971780311973e-02 5.3061224489795923e-02 0.0000000000000000e+00  2.1829988992820765e-02 4.9814860173279837e-02 0.0000000000000000e+00  -2.4350780997257023e-03 3.6350602855674151e-03 0.0000000000000000e+00  1.9372369227768645e-02 4.8272471934772063e-02 0.0000000000000000e+00  1.5506784527926473e-03 5.9866773197905856e-03 0.0000000000000000e+00  -4.7049539237015749e-03 1.2988993631638824e-02 0.0000000000000000e+00  1.9771210804411195e-02 4.5154044495068643e-02 0.0000000000000000e+00  6.8607555295390936e-03 1.4038596434222624e-02 0.0000000000000000e+00  -1.2947989925122083e-03 1.8710875887232006e-03 0.0000000000000000e+00  -5.4945096632365541e-03 1.6324761807566528e-02 0.0000000000000000e+00  2.8809044779275089e-03 7.1614698191038639e-03 0.0000000000000000e+00  2.7268975264322314e-04 2.1804084353752680e-03 0.0000000000000000e+00  -7.6307343340752754e-03 2.1783041415027224e-02 0.0000000000000000e+00  -8.9187022614104373e-03 4.2261266769091671e-02 0.0000000000000000e+00  2.2024069198648660e-05 9.3087570525572216e-03 0.0000000000000000e+00  1.1918358385351630e-02 3.3983816520545579e-02 0.0000000000000000e+00  -1.4464407112119630e-02 3.6087421269277185e-02 0.0000000000000000e+00  -1.5829844673410681e-03 5.6145079924413595e-03 0.0000000000000000e+00  -1.9625920092842981e-02 4.4801216912339195e-02 0.0000000000000000e+00  1.4805916727722300e-02 4.6294296914914011e-02 0.0000000000000000e+00  -2.1828485758416611e-03 3.4071269573037722e-03 0.0000000000000000e+00  -1.0811351645261836e-02 2.4090660229360440e-02 0.0000000000000000e+00  7.4960858534680319e-03 2.3372891047388232e-02 0.0000000000000000e+00  1.3041963966498110e-03 2.0112466032445216e-03 0.0000000000000000e+00  -3.3146986840973062e-03 7.1990922984701338e-03 0.0000000000000000e+00  2.9547463206181946e-03 2.4476178622570736e-02 0.0000000000000000e+00  4.6514007793156875e-03 2.2321550871616511e-02 0.0000000000000000e+00  -2.7240134054580369e-03 6.6505042447046626e-03 0.0000000000000000e+00  1.1479367723719854e-02 2.5751328228739330e-02 0.0000000000000000e+00  -9.7522814342411012e-03 2.7281229182342211e-02 0.0000000000000000e+00  -3.1582143754129376e-03 1.0311474305136957e-02 0.0000000000000000e+00  2.5367249860033143e-03 4.2333976941078804e-03 0.0000000000000000e+00  1.9383353818963362e-03 1.1516966731106878e-02 0.0000000000000000e+00  5.2821451910502843e-03 1.6138147137472230e-02 0.0000000000000000e+00  8.5287683397958069e-03 4.1256624161026788e-02 0.0000000000000000e+00  3.3882410941078202e-03 1.2118469049170532e-02 0.0000000000000000e+00  3.2417667396475477e-03 1.7268049658975167e-02 0.0000000000000000e+00  -3.3214583142873850e-03 1.7547585590283483e-02 0.0000000000000000e+00  -1.9365223451178262e-03 1.2038285911089198e-02 0.0000000000000000e+00  -1.4224651454515770e-02 3.3045282789345716e-02 0.0000000000000000e+00  1.4768076094629346e-02 3.6685281254252182e-02 0.0000000000000000e+00  1.3559682678574110e-02 3.1935988161666727e-02 0.0000000000000000e+00  -5.6050418453748741e-03 7.7844118346432649e-03 0.0000000000000000e+00  -1.2658183004860499e-02 2.9837611569675772e-02 0.0000000000000000e+00  -3.7236762512747476e-04 9.8745019287401758e-03 0.0000000000000000e+00  6.3842340389831135e-03 9.8901089201371261e-03 0.0000000000000000e+00  -3.0436239086792856e-05 2.6537532520227252e-03 0.0000000000000000e+00  -1.4657762987703413e-02 3.6490397292324860e-02 0.0000000000000000e+00  -1.1907990773829154e-02 2.7601795388689482e-02 0.0000000000000000e+00  1.1538753098373468e-02 2.6864531283966132e-02 0.0000000000000000e+00  -1.6588734207472002e-02 4.8227699074271921e-02 0.0000000000000000e+00  4.7618586432424349e-03 1.1762371193917924e-02 0.0000000000000000e+00  1.6117835732319889e-02 3.7755504070512133e-02 0.0000000000000000e+00  1.0935323763562830e-02 2.9672126275712439e-02 0.0000000000000000e+00  -3.5558543093625857e-03 1.289039544731761