<?xml version="1.0"?>
<VTKFile type="UnstructuredGrid"  version="0.1"  >
<UnstructuredGrid>
<Piece  NumberOfPoints="5173" NumberOfCells="9966">
<Points>
<DataArray  type="Float64"  NumberOfComponents="3"  format="ascii">-0.5 0.5 0  -0.5 -0.5 0  0.5 -0.5 0  0.5 0.5 0  0.1998669600420274 0.02125869712947308 0  0.201 0 0  0.1998669600420274 -0.02125869712947312 0  0.1964806779635733 -0.04227652472592507 0  0.1908795216936763 -0.06281534240438978 0  0.1831269545709826 -0.08264243715367564 0  0.1733108162787611 -0.1015331600677681 0  0.1615423275861927 -0.1192734717077003 0  0.1479548301726135 -0.1356623672539232 0  0.1327022758130076 -0.1505141539712278 0  0.1159574820428814 -0.1636605551816338 0  0.09791017406652992 -0.1749526169063923 0  0.07876483509466403 -0.1842623955740826 0  0.05873838946792427 -0.1914844076724011 0  0.03805774481742277 -0.1965368249185042 0  0.01695722111061653 -0.1993624014061501 0  -0.004324104287555032 -0.1999291222246905 0  -0.02554510545674447 -0.1982305662008014 0  -0.04646533997422303 -0.194285978652942 0  -0.06684777322360611 -0.1881400533342067 0  -0.08646146409177112 -0.1798624260342438 0  -0.1050841816239485 -0.1695468855779342 0  -0.1225049229892384 -0.1573103111605285 0  -0.138526304226997 -0.143291348059663 0  -0.1529667966859812 -0.127648836728964 0  -0.165662783816503 -0.1105600130722386 0  -0.1764704150113143 -0.0922185002898652 0  -0.1852672354904677 -0.07283211505056446 0  -0.1919535737629032 -0.05262051284550421 0  -0.1964536709442689 -0.03181269920381437 0  -0.1987165391353524 -0.0106444349684357 0  -0.1987165391353524 0.01064443496843575 0  -0.1964536709442689 0.03181269920381442 0  -0.1919535737629032 0.05262051284550433 0  -0.1852672354904677 0.07283211505056443 0  -0.1764704150113143 0.09221850028986515 0  -0.165662783816503 0.1105600130722387 0  -0.1529667966859812 0.1276488367289641 0  -0.1385263042269969 0.1432913480596631 0  -0.1225049229892383 0.1573103111605285 0  -0.1050841816239485 0.1695468855779342 0  -0.08646146409177108 0.1798624260342438 0  -0.06684777322360606 0.1881400533342067 0  -0.04646533997422297 0.194285978652942 0  -0.02554510545674437 0.1982305662008015 0  -0.004324104287554939 0.1999291222246905 0  0.01695722111061662 0.19936240140615 0  0.03805774481742286 0.1965368249185042 0  0.05873838946792424 0.1914844076724011 0  0.07876483509466414 0.1842623955740826 0  0.09791017406653006 0.1749526169063922 0  0.1159574820428814 0.1636605551816338 0  0.1327022758130078 0.1505141539712277 0  0.1479548301726135 0.1356623672539232 0  0.1615423275861927 0.1192734717077003 0  0.1733108162787612 0.101533160067768 0  0.1831269545709827 0.08264243715367564 0  0.1908795216936763 0.06281534240438975 0  0.1964806779635734 0.04227652472592486 0  0 -0.5 0  0 0.5 0  -0.5 0 0  0.5 0 0  0.25 -0.5 0  0.25 0.5 0  0.5 0.25 0  0.5 -0.25 0  -0.25 0.5 0  -0.25 -0.5 0  -0.5 -0.25 0  -0.5 0.25 0  0.2918258229480683 0.2918258229480682 0  0.2865867850624828 -0.2932931940421196 0  -0.2962949893701896 0.274449924397287 0  -0.2913160373738303 -0.2913160373738304 0  -0.125 0.3636995408959175 0  0.3637738468862107 -0.1261303957107176 0  0.125 0.3665964626830409 0  0.3640958654762797 0.1232161970438493 0  -0.3624000654276585 -0.1218337159209422 0  -0.125 -0.3668200952157802 0  0.125 -0.3712838880907947 0  -0.3600991828528437 0.1089843577122111 0  -0.5 0.375 0  0.5 -0.375 0  -0.375 -0.5 0  0.5 0.375 0  -0.375 0.5 0  0.375 -0.5 0  -0.5 -0.375 0  0.375 0.5 0  0.0006860903712339345 -0.3306266888645853 0  -0.000109901520948898 0.3746323380112415 0  -0.5 0.125 0  -0.125 -0.5 0  -0.5 -0.125 0  0.5 0.125 0  0.5 -0.125 0  0.125 -0.5 0  -0.125 0.5 0  0.125 0.5 0  0.3748576787807123 -0.001471205609738957 0  -0.3738828512115154 0.3738828512115154 0  -0.3827617049088436 -0.006210238480157219 0  -0.2429234745416257 0.3810213699917807 0  0.3769180353829246 -0.3769180353829246 0  -0.3777687524152424 -0.3777687524152424 0  0.3780704009792175 0.3780704009792175 0  -0.1776483227107271 -0.2618630460446135 0  -0.2604485542051718 -0.1787215021996984 0  -0.1798547561877991 0.2599748505350166 0  0.3864703130478905 -0.2380123189195306 0  0.1785319646943122 0.2625417448451246 0  0.261692611046212 0.1791168901036931 0  0.2607171500730768 -0.1799460669666111 0  0.1733970740599892 -0.2651674952354912 0  -0.3880520258539732 -0.2322407641539351 0  -0.2352016482221373 -0.388638232840279 0  0.2734696242623063 0.3964265996649794 0  0.3883795026617865 0.233417864889234 0  0.2738670858792859 -0.3976331321261044 0  -0.2491638954018168 0.1780101911767213 0  -0.3926686215746083 0.2165776265637375 0  0.07109213498061834 0.2869023807262104 0  -0.2934183534017453 0.03147305416145122 0  -0.08119265072200343 -0.2826195781877594 0  0.2836913223256923 -0.07709296110799269 0  -0.0558729689268372 0.2928347535333279 0  0.2830965643121598 0.07693076420704528 0  0.08122371629649494 -0.2825469282280794 0  -0.2767834230915197 -0.08819590430941976 0  0.1875 0.4332982313415205 0  -0.04303186331845871 -0.4151376431551652 0  0.190970733019215 -0.4322714131851434 0  0.06249999999999999 -0.4356419440453974 0  0.4328061849987423 0.06633847947711793 0  0.0664712649494027 0.4332982313415205 0  -0.06249999999999998 0.4373709104419552 0  0.4341377633941729 0.309372588857957 0  -0.4374372828954266 -0.3125 0  -0.3104572497507675 -0.4353019888851174 0  0.4374701104890421 -0.3125 0  -0.3116291712721947 0.4366347031852421 0  -0.4374901042687089 0.3125 0  -0.4363926600558238 0.4363926600558238 0  -0.5 0.0625 0  0.5 -0.0625 0  0.5 -0.4375 0  -0.4375 -0.5 0  0.5 0.4375 0  -0.1875 0.5 0  -0.4323246583268963 -0.07454303397230311 0  0.2154950463309389 -0.3375719358844427 0  0.206977802238796 0.342973363124546 0  0.4322596267199844 -0.1704803839098939 0  -0.1690769129391571 -0.4334100476078901 0  0.5 0.1875 0  -0.5 -0.1875 0  0.2967149326504868 -2.965984816150069e-05 0  -0.2579082457853068 0.1006999711688991 0  -0.4261732609354634 -0.1652001701086123 0  0.4197274728231854 -0.06828306080156128 0  0.4316260558094222 0.15625 0  -0.1765935890523967 0.4225213035878151 0  -0.326101012911042 0.1780020696215199 0  -0.3639018823524438 -0.3051829074366289 0  -0.4219359613016062 0.06132313683084987 0  -0.368871881750981 0.2861301036496543 0  -0.3031928482819811 -0.3630024307590357 0  0.3125 0.5 0  0.3355547846059301 -0.437829382399898 0  0.3620936304880762 0.3078025934392096 0  -0.4265460575686851 0.1475964618934338 0  0.4375 -0.5 0  -0.5 -0.4375 0  0.4375 0.5 0  0.3587983613906559 -0.3058906763528768 0  -0.1889171018677358 -0.3331988582480375 0  0.3319769361362775 -0.1908238194547704 0  0.3337713745363715 0.4328433800405805 0  -0.3319644446835826 -0.1870886352472088 0  0.3329253892881625 0.1878611701133833 0  0.4281511341447153 -0.4281511341447153 0  -0.232840147849867 0.3093215053326949 0  -0.40625 -0.4395608850352885 0  0.428794887401249 0.428794887401249 0  -0.3380841551254475 -0.05794700007688498 0  0.008054260670409629 -0.2648994211243904 0  0.1899220001124564 -0.1947534447033338 0  -0.3080416507322476 0.3708200057439822 0  -0.06307278823153059 -0.3455430469652901 0  0.06447087227249242 -0.3459780260685607 0  0.1914876772934198 0.1922953616824615 0  0.1267822167193652 -0.4357424153550361 0  -0.1100367963981227 0.2468729543145758 0  -0.1040301628609493 -0.4382371732506554 0  0.008496887133013969 0.3088587185741126 0  -0.1939711685411953 -0.1799889819170536 0  0.1169089524024441 0.2383640108781663 0  -0.5 0.1875 0  -0.06301873836730842 0.3744639870876723 0  0.0612272731888486 0.3516549422231338 0  0.0001842875295821901 0.4373159592812666 0  0.315570863666392 0.3499038328432952 0  0.43737589643705 0.003767781375474147 0  0.3480437072584214 -0.06190943679164183 0  0.3704548124556613 0.06095691071954262 0  0.3139725644615085 -0.3495769689516506 0  0.5 -0.1875 0  -0.5 -0.0625 0  -0.5 0.3125 0  -0.1875 -0.5 0  -0.3125 0.5 0  -0.3125 -0.5 0  -0.5 -0.3125 0  0.5 0.3125 0  -0.0625 0.5 0  0.5 0.0625 0  0.0625 -0.5 0  0.1875 -0.5 0  0.3125 -0.5 0  0.1875 0.5 0  0.0625 0.5 0  0.5 -0.3125 0  -0.4375 0.5 0  -0.5 0.4375 0  -0.0625 -0.5 0  -0.3740130545720807 0.4376162026208867 0  0.2356432480937504 -0.1203529309141897 0  0.2354253261260549 0.120280228505195 0  -0.4358389466402443 0.374436564627095 0  -0.1837098359759774 0.1929485386776155 0  -0.1210077767998366 -0.2331474219302516 0  -0.4388230181844467 -0.3736756227341544 0  0.2385916116983025 -0.2446215854929363 0  0.01618154697154811 -0.392205807603664 0  0.3033224724982568 0.1345019962362828 0  0.1269856324747013 0.4273682536406486 0  -0.2618767198442009 -0.02513308225372456 0  -0.1869024341550137 0.3523407916866587 0  0.4460792014197047 0.2150519456240759 0  -0.228067921023645 -0.1261420173261541 0  0.4375111104956734 0.3693541778847931 0  -0.2344434115929863 0.441225502334267 0  -0.1349409233725989 -0.3081519167298867 0  0.2361921270004774 0.236858231392783 0  -0.1134625589296566 0.3058057213872041 0  0.1364902237265291 -0.2193600350069504 0  -0.231009496195906 -0.2899916451544192 0  -0.4420301468408164 -0.0153626464053197 0  -0.3638407636123014 0.04989392276612995 0  -0.2281634567999949 -0.2293698735254731 0  -0.2404608239114909 0.2480193450766527 0  0.1548586079872366 0.3161601351946364 0  -0.2905808065687782 -0.2309892133488608 0  0.1583090638615736 -0.3223807786382032 0  0.3037640590628244 -0.1367963242859415 0  0.441474411355182 -0.3710236808063671 0  -0.1184457037417267 0.4214861255011078 0  0.3280783743867655 -0.2503846686276005 0  0.4421147536667354 -0.254616967737483 0  -0.4419160956032748 -0.2544205585064326 0  -0.3074463395544132 -0.1359279022829991 0  0.3366964226424555 0.256991018383815 0  -0.4508616135570574 0.21875 0  -0.3395120610056381 0.2372377549435862 0  -0.2261617732606898 -0.4465036260914809 0  0.2350726063974556 0.2936290504086719 0  0.007756726855498133 0.253726523067807 0  0.2816091581197124 -0.4531847002458751 0  0.002693579241951911 -0.4452927028974097 0  0.2614770372227774 0.3432624384800261 0  0.2905620892368345 0.2263682042801985 0  -0.2876366597373845 0.2178464403043631 0  0.2807413030307
[...]
<PointData  Vectors="f_44"> 
<DataArray  type="Float64"  Name="f_44"  NumberOfComponents="3" format="ascii">2.5559057250460079e-02 6.1224489795918380e-02 0.0000000000000000e+00  -1.0298571931845012e-02 2.0789162713637687e-02 0.0000000000000000e+00  1.0032785595828066e-02 2.0417545740862214e-02 0.0000000000000000e+00  -2.5481318790648261e-02 6.1224489795918366e-02 0.0000000000000000e+00  0.0000000000000000e+00 0.0000000000000000e+00 0.0000000000000000e+00  0.0000000000000000e+00 0.0000000000000000e+00 0.0000000000000000e+00  0.0000000000000000e+00 0.0000000000000000e+00 0.0000000000000000e+00  0.0000000000000000e+00 0.0000000000000000e+00 0.0000000000000000e+00  0.0000000000000000e+00 0.0000000000000000e+00 0.0000000000000000e+00  0.0000000000000000e+00 0.0000000000000000e+00 0.0000000000000000e+00  0.0000000000000000e+00 0.0000000000000000e+00 0.0000000000000000e+00  0.0000000000000000e+00 0.0000000000000000e+00 0.0000000000000000e+00  0.0000000000000000e+00 0.0000000000000000e+00 0.0000000000000000e+00  0.0000000000000000e+00 0.0000000000000000e+00 0.0000000000000000e+00  0.0000000000000000e+00 0.0000000000000000e+00 0.0000000000000000e+00  0.0000000000000000e+00 0.0000000000000000e+00 0.0000000000000000e+00  0.0000000000000000e+00 0.0000000000000000e+00 0.0000000000000000e+00  0.0000000000000000e+00 0.0000000000000000e+00 0.0000000000000000e+00  0.0000000000000000e+00 0.0000000000000000e+00 0.0000000000000000e+00  0.0000000000000000e+00 0.0000000000000000e+00 0.0000000000000000e+00  0.0000000000000000e+00 0.0000000000000000e+00 0.0000000000000000e+00  0.0000000000000000e+00 0.0000000000000000e+00 0.0000000000000000e+00  0.0000000000000000e+00 0.0000000000000000e+00 0.0000000000000000e+00  0.0000000000000000e+00 0.0000000000000000e+00 0.0000000000000000e+00  0.0000000000000000e+00 0.0000000000000000e+00 0.0000000000000000e+00  0.0000000000000000e+00 0.0000000000000000e+00 0.0000000000000000e+00  0.0000000000000000e+00 0.0000000000000000e+00 0.0000000000000000e+00  0.0000000000000000e+00 0.0000000000000000e+00 0.0000000000000000e+00  0.0000000000000000e+00 0.0000000000000000e+00 0.0000000000000000e+00  0.0000000000000000e+00 0.0000000000000000e+00 0.0000000000000000e+00  0.0000000000000000e+00 0.0000000000000000e+00 0.0000000000000000e+00  0.0000000000000000e+00 0.0000000000000000e+00 0.0000000000000000e+00  0.0000000000000000e+00 0.0000000000000000e+00 0.0000000000000000e+00  0.0000000000000000e+00 0.0000000000000000e+00 0.0000000000000000e+00  0.0000000000000000e+00 0.0000000000000000e+00 0.0000000000000000e+00  0.0000000000000000e+00 0.0000000000000000e+00 0.0000000000000000e+00  0.0000000000000000e+00 0.0000000000000000e+00 0.0000000000000000e+00  0.0000000000000000e+00 0.0000000000000000e+00 0.0000000000000000e+00  0.0000000000000000e+00 0.0000000000000000e+00 0.0000000000000000e+00  0.0000000000000000e+00 0.0000000000000000e+00 0.0000000000000000e+00  0.0000000000000000e+00 0.0000000000000000e+00 0.0000000000000000e+00  0.0000000000000000e+00 0.0000000000000000e+00 0.0000000000000000e+00  0.0000000000000000e+00 0.0000000000000000e+00 0.0000000000000000e+00  0.0000000000000000e+00 0.0000000000000000e+00 0.0000000000000000e+00  0.0000000000000000e+00 0.0000000000000000e+00 0.0000000000000000e+00  0.0000000000000000e+00 0.0000000000000000e+00 0.0000000000000000e+00  0.0000000000000000e+00 0.0000000000000000e+00 0.0000000000000000e+00  0.0000000000000000e+00 0.0000000000000000e+00 0.0000000000000000e+00  0.0000000000000000e+00 0.0000000000000000e+00 0.0000000000000000e+00  0.0000000000000000e+00 0.0000000000000000e+00 0.0000000000000000e+00  0.0000000000000000e+00 0.0000000000000000e+00 0.0000000000000000e+00  0.0000000000000000e+00 0.0000000000000000e+00 0.0000000000000000e+00  0.0000000000000000e+00 0.0000000000000000e+00 0.0000000000000000e+00  0.0000000000000000e+00 0.0000000000000000e+00 0.0000000000000000e+00  0.0000000000000000e+00 0.0000000000000000e+00 0.0000000000000000e+00  0.0000000000000000e+00 0.0000000000000000e+00 0.0000000000000000e+00  0.0000000000000000e+00 0.0000000000000000e+00 0.0000000000000000e+00  0.0000000000000000e+00 0.0000000000000000e+00 0.0000000000000000e+00  0.0000000000000000e+00 0.0000000000000000e+00 0.0000000000000000e+00  0.0000000000000000e+00 0.0000000000000000e+00 0.0000000000000000e+00  0.0000000000000000e+00 0.0000000000000000e+00 0.0000000000000000e+00  0.0000000000000000e+00 0.0000000000000000e+00 0.0000000000000000e+00  0.0000000000000000e+00 0.0000000000000000e+00 0.0000000000000000e+00  -1.4328062846433070e-04 3.6963388450793892e-03 0.0000000000000000e+00  1.1126190085464331e-04 6.1224489795918366e-02 0.0000000000000000e+00  5.1178711595896440e-03 3.2331189974192709e-02 0.0000000000000000e+00  -5.0830452167699323e-03 3.2037666865439095e-02 0.0000000000000000e+00  8.6059922183483357e-03 1.0187430561164246e-02 0.0000000000000000e+00  -1.7872224596172943e-02 6.1224489795918366e-02 0.0000000000000000e+00  -1.9451747737142023e-02 4.6546614555781213e-02 0.0000000000000000e+00  3.3254127189642890e-03 2.1827777762738809e-02 0.0000000000000000e+00  1.8015977646941180e-02 6.1224489795918380e-02 0.0000000000000000e+00  -8.8865207112628110e-03 1.0388239987794898e-02 0.0000000000000000e+00  -3.4207898610329177e-03 2.2193899123877401e-02 0.0000000000000000e+00  1.9506081822121497e-02 4.6715851120169453e-02 0.0000000000000000e+00  -1.6546611252951950e-02 3.8349017031072644e-02 0.0000000000000000e+00  4.2661291261078356e-03 1.1324745393243381e-02 0.0000000000000000e+00  1.6139709163784221e-02 3.7101795017250992e-02 0.0000000000000000e+00  -4.3989167782366298e-03 1.1845135238122903e-02 0.0000000000000000e+00  1.0053424126467272e-02 3.7804658862623304e-02 0.0000000000000000e+00  1.6437300597914161e-03 1.8337432442933732e-02 0.0000000000000000e+00  -9.8934728365640528e-03 3.8212709362295566e-02 0.0000000000000000e+00  -9.6527412852669813e-03 3.0041746315482398e-02 0.0000000000000000e+00  -1.5617137163467906e-03 1.8631590728831558e-02 0.0000000000000000e+00  -2.8957057309593735e-03 4.2801901491934264e-03 0.0000000000000000e+00  2.7627129580844309e-03 4.2297061066248216e-03 0.0000000000000000e+00  8.7619166965268169e-03 2.9017506435915118e-02 0.0000000000000000e+00  2.4071212329347360e-02 5.3806108254245075e-02 0.0000000000000000e+00  6.1394926621009078e-03 2.0457410349789554e-02 0.0000000000000000e+00  -1.0259798352044599e-02 1.6069298737975132e-02 0.0000000000000000e+00  -2.4007598672959624e-02 5.3717594022870137e-02 0.0000000000000000e+00  2.2709471370335063e-02 6.1224489795918366e-02 0.0000000000000000e+00  9.9889531743060766e-03 1.5783746459703818e-02 0.0000000000000000e+00  -6.3186236233556368e-03 2.0828918830273085e-02 0.0000000000000000e+00  -2.2611861344923337e-02 6.1224489795918380e-02 0.0000000000000000e+00  -6.1231054431629597e-05 1.7510927008808450e-03 0.0000000000000000e+00  1.1332246830290523e-04 3.6718983928058467e-02 0.0000000000000000e+00  1.2431551992694575e-02 3.9601195165721768e-02 0.0000000000000000e+00  -5.2661495448225746e-03 5.5804798934732357e-03 0.0000000000000000e+00  -1.6419344772626842e-04 2.6076894137855300e-02 0.0000000000000000e+00  -1.2382241883321748e-02 3.9367052218739741e-02 0.0000000000000000e+00  1.4681554648737061e-04 2.5741676415953995e-02 0.0000000000000000e+00  4.9902069275615038e-03 5.4802074420285327e-03 0.0000000000000000e+00  1.0405130319077388e-02 6.1224489795918380e-02 0.0000000000000000e+00  -1.0215291743549982e-02 6.1224489795918373e-02 0.0000000000000000e+00  -2.8947519569275946e-03 2.3766877277353073e-02 0.0000000000000000e+00  2.1323171105722166e-02 5.0171057274166271e-02 0.0000000000000000e+00  2.8570781042520812e-03 2.4471672824934197e-02 0.0000000000000000e+00  1.6923378674612796e-02 4.5901004779548345e-02 0.0000000000000000e+00  6.1461231896535080e-03 1.5892844104672725e-02 0.0000000000000000e+00  -6.3497555698701210e-03 1.6218171296352994e-02 0.0000000000000000e+00  -2.1429352656476695e-02 5.0572299178219100e-02 0.0000000000000000e+00  -2.7851028111643954e-03 5.1248941621914162e-03 0.0000000000000000e+00  -2.8385759232428189e-03 9.7188606306660170e-03 0.0000000000000000e+00  1.1205113209462114e-02 2.5250494813663354e-02 0.0000000000000000e+00  3.6760589877475572e-03 1.7550287674814282e-02 0.0000000000000000e+00  -1.1108344776218004e-02 2.5276467209293101e-02 0.0000000000000000e+00  -1.0251100313464342e-02 2.4402545835728370e-02 0.0000000000000000e+00  2.7970496566650572e-03 9.4915023573192321e-03 0.0000000000000000e+00  2.6434371770256179e-03 4.8171531428288974e-03 0.0000000000000000e+00  -3.6524493559493307e-03 1.8019321498009135e-02 0.0000000000000000e+00  -5.2778915260607226e-03 9.0793718128002170e-03 0.0000000000000000e+00  -1.8310933930109307e-02 4.8875763514228947e-02 0.0000000000000000e+00  -1.6487277613471279e-02 3.9566625018605479e-02 0.0000000000000000e+00  5.7974514499105900e-03 1.0831371473562633e-02 0.0000000000000000e+00  9.8255714331292217e-03 2.3077876233120749e-02 0.0000000000000000e+00  1.5781709877873168e-02 3.8803666108771777e-02 0.0000000000000000e+00  -5.2417086976344462e-03 2.0577230342405089e-02 0.0000000000000000e+00  2.7535421404537627e-03 1.7293241167187147e-02 0.0000000000000000e+00  -1.3406780201337700e-03 1.9630825553276750e-03 0.0000000000000000e+00  1.1065288442289008e-03 1.2152970449404093e-02 0.0000000000000000e+00  4.3793826367453347e-03 2.1118298458271536e-02 0.0000000000000000e+00  -4.7187372573524820e-03 1.8402085664850260e-02 0.0000000000000000e+00  1.2273830294371991e-03 1.8995534697043609e-03 0.0000000000000000e+00  -1.3766011970893378e-03 1.1532716267131348e-02 0.0000000000000000e+00  -1.4318544961790599e-02 5.1175691711394258e-02 0.0000000000000000e+00  -1.3164947141537959e-03 2.9954188492266496e-03 0.0000000000000000e+00  5.1449260467624994e-03 7.1801283310460335e-03 0.0000000000000000e+00  1.8030698294032761e-03 3.4232025907004623e-03 0.0000000000000000e+00  -7.6168761058796712e-03 3.1707795980458614e-02 0.0000000000000000e+00  -5.5787817667309891e-03 4.8746598273600505e-02 0.0000000000000000e+00  5.4645185444723915e-03 4.9488338276712354e-02 0.0000000000000000e+00  -2.0746379122199652e-02 4.7345154752533578e-02 0.0000000000000000e+00  -4.9781723857224881e-03 1.9263744070813094e-02 0.0000000000000000e+00  -7.3972556462222989e-03 1.2980284944438938e-02 0.0000000000000000e+00  4.8418393356223872e-03 1.8934466647495540e-02 0.0000000000000000e+00  2.0358897433430039e-02 5.4475036561140645e-02 0.0000000000000000e+00  2.1005367996361685e-02 4.7832767360125296e-02 0.0000000000000000e+00  2.3907382195748852e-02 5.6575675767695906e-02 0.0000000000000000e+00  8.6229062936892548e-03 3.5941596927496426e-02 0.0000000000000000e+00  -2.1493353270429440e-03 2.8652814551100556e-02 0.0000000000000000e+00  7.9380552049916221e-03 2.0391974993297087e-02 0.0000000000000000e+00  -1.0322775602933243e-02 1.8574457256440538e-02 0.0000000000000000e+00  -2.5115290707796719e-02 5.7429255664061769e-02 0.0000000000000000e+00  1.4619391411762307e-02 6.1224489795918359e-02 0.0000000000000000e+00  7.3369448407421898e-04 2.4977549898959357e-02 0.0000000000000000e+00  4.0230695575549707e-03 7.6203227950698933e-03 0.0000000000000000e+00  -1.4507514764126419e-02 3.8920695805811742e-02 0.0000000000000000e+00  2.1051819582914343e-03 2.1376579682585509e-02 0.0000000000000000e+00  -4.9004256273565165e-03 6.4624243284463938e-03 0.0000000000000000e+00  -1.6127345489419079e-02 4.2990642136208589e-02 0.0000000000000000e+00  -1.9538906574441965e-03 2.3798146547197047e-02 0.0000000000000000e+00  -1.4279921210488258e-03 1.5870476039185639e-02 0.0000000000000000e+00  5.2822110628515280e-03 1.7002992440988008e-02 0.0000000000000000e+00  -2.0672091797283815e-03 2.1528763648197131e-02 0.0000000000000000e+00  -7.8395634740191815e-04 2.4150401641256352e-02 0.0000000000000000e+00  -1.3044961509680202e-02 3.7043861841511400e-02 0.0000000000000000e+00  1.3769460210247131e-02 4.9311358225558911e-02 0.0000000000000000e+00  1.2122502802744893e-02 3.1011451823451552e-02 0.0000000000000000e+00  -4.8868948593685374e-03 1.5902313538574877e-02 0.0000000000000000e+00  7.1777263605476930e-03 3.0943851827674739e-02 0.0000000000000000e+00  1.8500516089045505e-02 4.2661468570275002e-02 0.0000000000000000e+00  -5.6025925875869860e-03 1.2497980865027446e-02 0.0000000000000000e+00  -2.0549345702193800e-02 6.1224489795918366e-02 0.0000000000000000e+00  7.4860642954389109e-03 1.3930057221919730e-02 0.0000000000000000e+00  -1.9054921065207123e-02 4.3943760480319539e-02 0.0000000000000000e+00  1.2486912697980936e-02 3.6396666103380847e-02 0.0000000000000000e+00  1.0055357275826125e-02 1.8243257052654709e-02 0.0000000000000000e+00  -8.1625125433791908e-03 2.0766499068430925e-02 0.0000000000000000e+00  -2.4208594570369314e-02 6.1224489795918373e-02 0.0000000000000000e+00  4.7586812670602488e-03 1.5344464237687590e-02 0.0000000000000000e+00  -3.7169459915213309e-03 6.4752735036247072e-03 0.0000000000000000e+00  3.0727668613824408e-03 1.4811572585458233e-02 0.0000000000000000e+00  -2.0970829482650864e-02 5.4474231410501131e-02 0.0000000000000000e+00  -3.0656329481665657e-03 1.5134705421353504e-02 0.0000000000000000e+00  -1.2790879050786392e-02 3.2147437533337736e-02 0.0000000000000000e+00  7.6208461030449802e-03 1.7925202227612871e-02 0.0000000000000000e+00  1.5077568826654912e-02 3.6361004484488695e-02 0.0000000000000000e+00  -8.1471013924794018e-03 1.7358994771119757e-02 0.0000000000000000e+00  -2.3556945443233432e-02 5.5841257551501204e-02 0.0000000000000000e+00  3.6266203291715460e-05 1.8471746542234029e-02 0.0000000000000000e+00  6.0785307320275390e-05 8.3965725742042292e-04 0.0000000000000000e+00  2.1358774566049054e-03 4.5092637821010856e-03 0.0000000000000000e+00  1.9293661968892411e-02 4.7468672419187660e-02 0.0000000000000000e+00  -1.4099291869594703e-03 2.4908134012248872e-03 0.0000000000000000e+00  1.2786184087770051e-03 2.4666842117986227e-03 0.0000000000000000e+00  -8.1289746904575164e-03 1.6895861037904660e-02 0.0000000000000000e+00  3.6431739684450316e-03 4.8969122646560174e-03 0.0000000000000000e+00  6.8526133794150068e-03 1.5996918456625472e-02 0.0000000000000000e+00  -3.2853881341047566e-03 4.3827772700121117e-03 0.0000000000000000e+00  -5.8865412067214446e-04 2.3228390583154464e-02 0.0000000000000000e+00  -2.0826926173009496e-03 4.6463171354831903e-03 0.0000000000000000e+00  -6.7612465265308374e-03 1.4905743484297074e-02 0.0000000000000000e+00  1.6178452738429275e-02 4.3192145329506583e-02 0.0000000000000000e+00  5.4210792624625826e-03 3.7535159718904393e-02 0.0000000000000000e+00  -5.0045882636147888e-03 3.2987213307257172e-02 0.0000000000000000e+00  9.4986134825120945e-05 4.9097669798892532e-02 0.0000000000000000e+00  -1.8981390917241575e-02 4.5555304278478800e-02 0.0000000000000000e+00  -4.2400786772824129e-03 2.8620675196889853e-02 0.0000000000000000e+00  -2.0821154747858295e-05 1.8951015496190028e-02 0.0000000000000000e+00  -6.0770253758356809e-03 2.6687839393286176e-02 0.0000000000000000e+00  5.2757976776036551e-03 1.2822467833453749e-02 0.0000000000000000e+00  1.9088715759724886e-03 2.3440837197437534e-02 0.0000000000000000e+00  2.1656374288619045e-03 2.8972602686543687e-02 0.0000000000000000e+00  2.2176091513796792e-02 5.0226769523192674e-02 0.0000000000000000e+00  -7.3407362393210556e-03 7.7285143598945488e-03 0.0000000000000000e+00  2.0671039610469729e-02 6.1224489795918373e-02 0.0000000000000000e+00  -9.8328200268205518e-03 1.3270803840258532e-02 0.0000000000000000e+00  -4.7930156220999370e-03 2.1239823147949827e-02 0.0000000000000000e+00  -2.2114301761640056e-02 5.0094427043665159e-02 0.0000000000000000e+00  5.4793154580621466e-03 6.1224489795918366e-02 0.0000000000000000e+00  -8.5783090235009348e-03 3.5676821771659595e-02 0.0000000000000000e+00  2.5200135985678170e-03 4.1380400806587869e-03 0.0000000000000000e+00  7.0605868895766560e-03 7.5691965684249324e-03 0.0000000000000000e+00  9.5625168955982033e-03 1.3024151466851503e-02 0.0000000000000000e+00  -1.4446704743518288e-02 6.1224489795918380e-02 0.0000000000000000e+00  -5.2640279373973231e-03 6.1224489795918373e-02 0.0000000000000000e+00  4.6551132153494039e-03 2.0868643234161665e-02 0.0000000000000000e+00  2.4297659746513867e-02 6.1224489795918380e-02 0.0000000000000000e+00  2.5188448837870137e-02 5.7478684815322902e-02 0.0000000000000000e+00  -2.8097054996835051e-03 4.1943003295008656e-03 0.0000000000000000e+00  2.2352733724348466e-02 5.5699006078583142e-02 0.0000000000000000e+00  1.7892443686069010e-03 6.9077045997583660e-03 0.0000000000000000e+00  -5.4287929888864337e-03 1.4987300344198644e-02 0.0000000000000000e+00  2.2812935543551394e-02 5.2100820571233046e-02 0.0000000000000000e+00  7.9162563802374145e-03 1.6198380501026104e-02 0.0000000000000000e+00  -1.4939988375140859e-03 2.1589472177575399e-03 0.0000000000000000e+00  -6.3398188421960261e-03 1.8836263624115227e-02 0.0000000000000000e+00  3.3241205514548174e-03 8.2632344066583055e-03 0.0000000000000000e+00  3.1464202228064186e-04 2.5158558869714637e-03 0.0000000000000000e+00  -8.8046934623945503e-03 2.5134278555800645e-02 0.0000000000000000e+00  -1.0290810301627446e-02 4.8763000118182701e-02 0.0000000000000000e+00  2.5412387536902230e-05 1.0740873522181411e-02 0.0000000000000000e+00  1.3751951983098041e-02 3.9212095985244902e-02 0.0000000000000000e+00  -1.6689700513984194e-02 4.1639332233781384e-02 0.0000000000000000e+00  -1.8265205392396947e-03 6.4782784528169546e-03 0.0000000000000000e+00  -2.2645292414818847e-02 5.1693711821929840e-02 0.0000000000000000e+00  1.7083750070448822e-02 5.3416496440285392e-02 0.0000000000000000e+00  -2.5186714336634559e-03 3.9313003353505082e-03 0.0000000000000000e+00  -1.2474636513763666e-02 2.7796915649262049e-02 0.0000000000000000e+00  8.6493298309246527e-03 2.6968720439294110e-02 0.0000000000000000e+00  1.5048419961343977e-03 2.3206691575898331e-03 0.0000000000000000e+00  -3.8246523278045860e-03 8.3066449597732316e-03 0.0000000000000000e+00  3.4093226776363787e-03 2.8241744564504689e-02 0.0000000000000000e+00  5.3670008992104069e-03 2.5755635621095976e-02 0.0000000000000000e+00  -3.1430923909131206e-03 7.6736587438899955e-03 0.0000000000000000e+00  1.3245424296599832e-02 2.9713071033160770e-02 0.0000000000000000e+00  -1.1252632424124359e-02 3.1478341364240998e-02 0.0000000000000000e+00  -3.6440935100918530e-03 1.1897854967465723e-02 0.0000000000000000e+00  2.9269903684653637e-03 4.8846896470475555e-03 0.0000000000000000e+00  2.2365408252650047e-03 1.3288807766661779e-02 0.0000000000000000e+00  6.0947829127503267e-03 1.8620939004775652e-02 0.0000000000000000e+00  9.8408865459182517e-03 4.7603797108877077e-02 0.0000000000000000e+00  3.9095089547397932e-03 1.3982848902889077e-02 0.0000000000000000e+00  3.7405000842087102e-03 1.9924672683432888e-02 0.0000000000000000e+00  -3.8324519011008287e-03 2.0247214142634789e-02 0.0000000000000000e+00  -2.2344488597513396e-03 1.3890329897410613e-02 0.0000000000000000e+00  -1.6413059370595132e-02 3.8129172449245047e-02 0.0000000000000000e+00  1.7040087801495400e-02 4.2329170677983308e-02 0.0000000000000000e+00  1.5645787706047045e-02 3.6849217109615466e-02 0.0000000000000000e+00  -6.4673559754325509e-03 8.9820136553576142e-03 0.0000000000000000e+00  -1.4605595774839048e-02 3.4428013349625891e-02 0.0000000000000000e+00  -4.2965495207016502e-04 1.1393656071623277e-02 0.0000000000000000e+00  7.3664238911343620e-03 1.1411664138619762e-02 0.0000000000000000e+00  -3.5118737407838227e-05 3.0620229831031451e-03 0.0000000000000000e+00  -1.6912803447350109e-02 4.2104304568067158e-02 0.0000000000000000e+00  -1.3739989354418263e-02 3.1848225448487866e-02 0.0000000000000000e+00  1.3313945882738619e-02 3.0997536096884003e-02 0.0000000000000000e+00  -1.9140847162467733e-02 5.5647345085698359e-02 0.0000000000000000e+00  5.4944522806643489e-03 1.3571966762212988e-02 0.0000000000000000e+00  1.8597502768061418e-02 4.3564043158283237e-02 0.0000000000000000e+00  1.2617681265649416e-02 3.4237068779668187e-02 0.0000000000000000e+00  -4.1029088184952912e-03 1.487353320844339