<?xml version="1.0"?>
<VTKFile type="UnstructuredGrid"  version="0.1"  >
<UnstructuredGrid>
<Piece  NumberOfPoints="5173" NumberOfCells="9966">
<Points>
<DataArray  type="Float64"  NumberOfComponents="3"  format="ascii">-0.5 0.5 0  -0.5 -0.5 0  0.5 -0.5 0  0.5 0.5 0  0.1998669600420274 0.02125869712947308 0  0.201 0 0  0.1998669600420274 -0.02125869712947312 0  0.1964806779635733 -0.04227652472592507 0  0.1908795216936763 -0.06281534240438978 0  0.1831269545709826 -0.08264243715367564 0  0.1733108162787611 -0.1015331600677681 0  0.1615423275861927 -0.1192734717077003 0  0.1479548301726135 -0.1356623672539232 0  0.1327022758130076 -0.1505141539712278 0  0.1159574820428814 -0.1636605551816338 0  0.09791017406652992 -0.1749526169063923 0  0.07876483509466403 -0.1842623955740826 0  0.05873838946792427 -0.1914844076724011 0  0.03805774481742277 -0.1965368249185042 0  0.01695722111061653 -0.1993624014061501 0  -0.004324104287555032 -0.1999291222246905 0  -0.02554510545674447 -0.1982305662008014 0  -0.04646533997422303 -0.194285978652942 0  -0.06684777322360611 -0.1881400533342067 0  -0.08646146409177112 -0.1798624260342438 0  -0.1050841816239485 -0.1695468855779342 0  -0.1225049229892384 -0.1573103111605285 0  -0.138526304226997 -0.143291348059663 0  -0.1529667966859812 -0.127648836728964 0  -0.165662783816503 -0.1105600130722386 0  -0.1764704150113143 -0.0922185002898652 0  -0.1852672354904677 -0.07283211505056446 0  -0.1919535737629032 -0.05262051284550421 0  -0.1964536709442689 -0.03181269920381437 0  -0.1987165391353524 -0.0106444349684357 0  -0.1987165391353524 0.01064443496843575 0  -0.1964536709442689 0.03181269920381442 0  -0.1919535737629032 0.05262051284550433 0  -0.1852672354904677 0.07283211505056443 0  -0.1764704150113143 0.09221850028986515 0  -0.165662783816503 0.1105600130722387 0  -0.1529667966859812 0.1276488367289641 0  -0.1385263042269969 0.1432913480596631 0  -0.1225049229892383 0.1573103111605285 0  -0.1050841816239485 0.1695468855779342 0  -0.08646146409177108 0.1798624260342438 0  -0.06684777322360606 0.1881400533342067 0  -0.04646533997422297 0.194285978652942 0  -0.02554510545674437 0.1982305662008015 0  -0.004324104287554939 0.1999291222246905 0  0.01695722111061662 0.19936240140615 0  0.03805774481742286 0.1965368249185042 0  0.05873838946792424 0.1914844076724011 0  0.07876483509466414 0.1842623955740826 0  0.09791017406653006 0.1749526169063922 0  0.1159574820428814 0.1636605551816338 0  0.1327022758130078 0.1505141539712277 0  0.1479548301726135 0.1356623672539232 0  0.1615423275861927 0.1192734717077003 0  0.1733108162787612 0.101533160067768 0  0.1831269545709827 0.08264243715367564 0  0.1908795216936763 0.06281534240438975 0  0.1964806779635734 0.04227652472592486 0  0 -0.5 0  0 0.5 0  -0.5 0 0  0.5 0 0  0.25 -0.5 0  0.25 0.5 0  0.5 0.25 0  0.5 -0.25 0  -0.25 0.5 0  -0.25 -0.5 0  -0.5 -0.25 0  -0.5 0.25 0  0.2918258229480683 0.2918258229480682 0  0.2865867850624828 -0.2932931940421196 0  -0.2962949893701896 0.274449924397287 0  -0.2913160373738303 -0.2913160373738304 0  -0.125 0.3636995408959175 0  0.3637738468862107 -0.1261303957107176 0  0.125 0.3665964626830409 0  0.3640958654762797 0.1232161970438493 0  -0.3624000654276585 -0.1218337159209422 0  -0.125 -0.3668200952157802 0  0.125 -0.3712838880907947 0  -0.3600991828528437 0.1089843577122111 0  -0.5 0.375 0  0.5 -0.375 0  -0.375 -0.5 0  0.5 0.375 0  -0.375 0.5 0  0.375 -0.5 0  -0.5 -0.375 0  0.375 0.5 0  0.0006860903712339345 -0.3306266888645853 0  -0.000109901520948898 0.3746323380112415 0  -0.5 0.125 0  -0.125 -0.5 0  -0.5 -0.125 0  0.5 0.125 0  0.5 -0.125 0  0.125 -0.5 0  -0.125 0.5 0  0.125 0.5 0  0.3748576787807123 -0.001471205609738957 0  -0.3738828512115154 0.3738828512115154 0  -0.3827617049088436 -0.006210238480157219 0  -0.2429234745416257 0.3810213699917807 0  0.3769180353829246 -0.3769180353829246 0  -0.3777687524152424 -0.3777687524152424 0  0.3780704009792175 0.3780704009792175 0  -0.1776483227107271 -0.2618630460446135 0  -0.2604485542051718 -0.1787215021996984 0  -0.1798547561877991 0.2599748505350166 0  0.3864703130478905 -0.2380123189195306 0  0.1785319646943122 0.2625417448451246 0  0.261692611046212 0.1791168901036931 0  0.2607171500730768 -0.1799460669666111 0  0.1733970740599892 -0.2651674952354912 0  -0.3880520258539732 -0.2322407641539351 0  -0.2352016482221373 -0.388638232840279 0  0.2734696242623063 0.3964265996649794 0  0.3883795026617865 0.233417864889234 0  0.2738670858792859 -0.3976331321261044 0  -0.2491638954018168 0.1780101911767213 0  -0.3926686215746083 0.2165776265637375 0  0.07109213498061834 0.2869023807262104 0  -0.2934183534017453 0.03147305416145122 0  -0.08119265072200343 -0.2826195781877594 0  0.2836913223256923 -0.07709296110799269 0  -0.0558729689268372 0.2928347535333279 0  0.2830965643121598 0.07693076420704528 0  0.08122371629649494 -0.2825469282280794 0  -0.2767834230915197 -0.08819590430941976 0  0.1875 0.4332982313415205 0  -0.04303186331845871 -0.4151376431551652 0  0.190970733019215 -0.4322714131851434 0  0.06249999999999999 -0.4356419440453974 0  0.4328061849987423 0.06633847947711793 0  0.0664712649494027 0.4332982313415205 0  -0.06249999999999998 0.4373709104419552 0  0.4341377633941729 0.309372588857957 0  -0.4374372828954266 -0.3125 0  -0.3104572497507675 -0.4353019888851174 0  0.4374701104890421 -0.3125 0  -0.3116291712721947 0.4366347031852421 0  -0.4374901042687089 0.3125 0  -0.4363926600558238 0.4363926600558238 0  -0.5 0.0625 0  0.5 -0.0625 0  0.5 -0.4375 0  -0.4375 -0.5 0  0.5 0.4375 0  -0.1875 0.5 0  -0.4323246583268963 -0.07454303397230311 0  0.2154950463309389 -0.3375719358844427 0  0.206977802238796 0.342973363124546 0  0.4322596267199844 -0.1704803839098939 0  -0.1690769129391571 -0.4334100476078901 0  0.5 0.1875 0  -0.5 -0.1875 0  0.2967149326504868 -2.965984816150069e-05 0  -0.2579082457853068 0.1006999711688991 0  -0.4261732609354634 -0.1652001701086123 0  0.4197274728231854 -0.06828306080156128 0  0.4316260558094222 0.15625 0  -0.1765935890523967 0.4225213035878151 0  -0.326101012911042 0.1780020696215199 0  -0.3639018823524438 -0.3051829074366289 0  -0.4219359613016062 0.06132313683084987 0  -0.368871881750981 0.2861301036496543 0  -0.3031928482819811 -0.3630024307590357 0  0.3125 0.5 0  0.3355547846059301 -0.437829382399898 0  0.3620936304880762 0.3078025934392096 0  -0.4265460575686851 0.1475964618934338 0  0.4375 -0.5 0  -0.5 -0.4375 0  0.4375 0.5 0  0.3587983613906559 -0.3058906763528768 0  -0.1889171018677358 -0.3331988582480375 0  0.3319769361362775 -0.1908238194547704 0  0.3337713745363715 0.4328433800405805 0  -0.3319644446835826 -0.1870886352472088 0  0.3329253892881625 0.1878611701133833 0  0.4281511341447153 -0.4281511341447153 0  -0.232840147849867 0.3093215053326949 0  -0.40625 -0.4395608850352885 0  0.428794887401249 0.428794887401249 0  -0.3380841551254475 -0.05794700007688498 0  0.008054260670409629 -0.2648994211243904 0  0.1899220001124564 -0.1947534447033338 0  -0.3080416507322476 0.3708200057439822 0  -0.06307278823153059 -0.3455430469652901 0  0.06447087227249242 -0.3459780260685607 0  0.1914876772934198 0.1922953616824615 0  0.1267822167193652 -0.4357424153550361 0  -0.1100367963981227 0.2468729543145758 0  -0.1040301628609493 -0.4382371732506554 0  0.008496887133013969 0.3088587185741126 0  -0.1939711685411953 -0.1799889819170536 0  0.1169089524024441 0.2383640108781663 0  -0.5 0.1875 0  -0.06301873836730842 0.3744639870876723 0  0.0612272731888486 0.3516549422231338 0  0.0001842875295821901 0.4373159592812666 0  0.315570863666392 0.3499038328432952 0  0.43737589643705 0.003767781375474147 0  0.3480437072584214 -0.06190943679164183 0  0.3704548124556613 0.06095691071954262 0  0.3139725644615085 -0.3495769689516506 0  0.5 -0.1875 0  -0.5 -0.0625 0  -0.5 0.3125 0  -0.1875 -0.5 0  -0.3125 0.5 0  -0.3125 -0.5 0  -0.5 -0.3125 0  0.5 0.3125 0  -0.0625 0.5 0  0.5 0.0625 0  0.0625 -0.5 0  0.1875 -0.5 0  0.3125 -0.5 0  0.1875 0.5 0  0.0625 0.5 0  0.5 -0.3125 0  -0.4375 0.5 0  -0.5 0.4375 0  -0.0625 -0.5 0  -0.3740130545720807 0.4376162026208867 0  0.2356432480937504 -0.1203529309141897 0  0.2354253261260549 0.120280228505195 0  -0.4358389466402443 0.374436564627095 0  -0.1837098359759774 0.1929485386776155 0  -0.1210077767998366 -0.2331474219302516 0  -0.4388230181844467 -0.3736756227341544 0  0.2385916116983025 -0.2446215854929363 0  0.01618154697154811 -0.392205807603664 0  0.3033224724982568 0.1345019962362828 0  0.1269856324747013 0.4273682536406486 0  -0.2618767198442009 -0.02513308225372456 0  -0.1869024341550137 0.3523407916866587 0  0.4460792014197047 0.2150519456240759 0  -0.228067921023645 -0.1261420173261541 0  0.4375111104956734 0.3693541778847931 0  -0.2344434115929863 0.441225502334267 0  -0.1349409233725989 -0.3081519167298867 0  0.2361921270004774 0.236858231392783 0  -0.1134625589296566 0.3058057213872041 0  0.1364902237265291 -0.2193600350069504 0  -0.231009496195906 -0.2899916451544192 0  -0.4420301468408164 -0.0153626464053197 0  -0.3638407636123014 0.04989392276612995 0  -0.2281634567999949 -0.2293698735254731 0  -0.2404608239114909 0.2480193450766527 0  0.1548586079872366 0.3161601351946364 0  -0.2905808065687782 -0.2309892133488608 0  0.1583090638615736 -0.3223807786382032 0  0.3037640590628244 -0.1367963242859415 0  0.441474411355182 -0.3710236808063671 0  -0.1184457037417267 0.4214861255011078 0  0.3280783743867655 -0.2503846686276005 0  0.4421147536667354 -0.254616967737483 0  -0.4419160956032748 -0.2544205585064326 0  -0.3074463395544132 -0.1359279022829991 0  0.3366964226424555 0.256991018383815 0  -0.4508616135570574 0.21875 0  -0.3395120610056381 0.2372377549435862 0  -0.2261617732606898 -0.4465036260914809 0  0.2350726063974556 0.2936290504086719 0  0.007756726855498133 0.253726523067807 0  0.2816091581197124 -0.4531847002458751 0  0.002693579241951911 -0.4452927028974097 0  0.2614770372227774 0.3432624384800261 0  0.2905620892368345 0.2263682042801985 0  -0.2876366597373845 0.2178464403043631 0  0.2807413030307
[...]
<PointData  Vectors="f_44"> 
<DataArray  type="Float64"  Name="f_44"  NumberOfComponents="3" format="ascii">-7.0699565913977438e-03 1.7959183673469389e-01 0.0000000000000000e+00  -1.5858639807705185e-04 3.0438000023765363e-04 0.0000000000000000e+00  1.2823440821042398e-04 2.6907254133035031e-04 0.0000000000000000e+00  -7.4648259685150915e-03 1.7959183673469387e-01 0.0000000000000000e+00  0.0000000000000000e+00 0.0000000000000000e+00 0.0000000000000000e+00  0.0000000000000000e+00 0.0000000000000000e+00 0.0000000000000000e+00  0.0000000000000000e+00 0.0000000000000000e+00 0.0000000000000000e+00  0.0000000000000000e+00 0.0000000000000000e+00 0.0000000000000000e+00  0.0000000000000000e+00 0.0000000000000000e+00 0.0000000000000000e+00  0.0000000000000000e+00 0.0000000000000000e+00 0.0000000000000000e+00  0.0000000000000000e+00 0.0000000000000000e+00 0.0000000000000000e+00  0.0000000000000000e+00 0.0000000000000000e+00 0.0000000000000000e+00  0.0000000000000000e+00 0.0000000000000000e+00 0.0000000000000000e+00  0.0000000000000000e+00 0.0000000000000000e+00 0.0000000000000000e+00  0.0000000000000000e+00 0.0000000000000000e+00 0.0000000000000000e+00  0.0000000000000000e+00 0.0000000000000000e+00 0.0000000000000000e+00  0.0000000000000000e+00 0.0000000000000000e+00 0.0000000000000000e+00  0.0000000000000000e+00 0.0000000000000000e+00 0.0000000000000000e+00  0.0000000000000000e+00 0.0000000000000000e+00 0.0000000000000000e+00  0.0000000000000000e+00 0.0000000000000000e+00 0.0000000000000000e+00  0.0000000000000000e+00 0.0000000000000000e+00 0.0000000000000000e+00  0.0000000000000000e+00 0.0000000000000000e+00 0.0000000000000000e+00  0.0000000000000000e+00 0.0000000000000000e+00 0.0000000000000000e+00  0.0000000000000000e+00 0.0000000000000000e+00 0.0000000000000000e+00  0.0000000000000000e+00 0.0000000000000000e+00 0.0000000000000000e+00  0.0000000000000000e+00 0.0000000000000000e+00 0.0000000000000000e+00  0.0000000000000000e+00 0.0000000000000000e+00 0.0000000000000000e+00  0.0000000000000000e+00 0.0000000000000000e+00 0.0000000000000000e+00  0.0000000000000000e+00 0.0000000000000000e+00 0.0000000000000000e+00  0.0000000000000000e+00 0.0000000000000000e+00 0.0000000000000000e+00  0.0000000000000000e+00 0.0000000000000000e+00 0.0000000000000000e+00  0.0000000000000000e+00 0.0000000000000000e+00 0.0000000000000000e+00  0.0000000000000000e+00 0.0000000000000000e+00 0.0000000000000000e+00  0.0000000000000000e+00 0.0000000000000000e+00 0.0000000000000000e+00  0.0000000000000000e+00 0.0000000000000000e+00 0.0000000000000000e+00  0.0000000000000000e+00 0.0000000000000000e+00 0.0000000000000000e+00  0.0000000000000000e+00 0.0000000000000000e+00 0.0000000000000000e+00  0.0000000000000000e+00 0.0000000000000000e+00 0.0000000000000000e+00  0.0000000000000000e+00 0.0000000000000000e+00 0.0000000000000000e+00  0.0000000000000000e+00 0.0000000000000000e+00 0.0000000000000000e+00  0.0000000000000000e+00 0.0000000000000000e+00 0.0000000000000000e+00  0.0000000000000000e+00 0.0000000000000000e+00 0.0000000000000000e+00  0.0000000000000000e+00 0.0000000000000000e+00 0.0000000000000000e+00  0.0000000000000000e+00 0.0000000000000000e+00 0.0000000000000000e+00  0.0000000000000000e+00 0.0000000000000000e+00 0.0000000000000000e+00  0.0000000000000000e+00 0.0000000000000000e+00 0.0000000000000000e+00  0.0000000000000000e+00 0.0000000000000000e+00 0.0000000000000000e+00  0.0000000000000000e+00 0.0000000000000000e+00 0.0000000000000000e+00  0.0000000000000000e+00 0.0000000000000000e+00 0.0000000000000000e+00  0.0000000000000000e+00 0.0000000000000000e+00 0.0000000000000000e+00  0.0000000000000000e+00 0.0000000000000000e+00 0.0000000000000000e+00  0.0000000000000000e+00 0.0000000000000000e+00 0.0000000000000000e+00  0.0000000000000000e+00 0.0000000000000000e+00 0.0000000000000000e+00  0.0000000000000000e+00 0.0000000000000000e+00 0.0000000000000000e+00  0.0000000000000000e+00 0.0000000000000000e+00 0.0000000000000000e+00  0.0000000000000000e+00 0.0000000000000000e+00 0.0000000000000000e+00  0.0000000000000000e+00 0.0000000000000000e+00 0.0000000000000000e+00  0.0000000000000000e+00 0.0000000000000000e+00 0.0000000000000000e+00  0.0000000000000000e+00 0.0000000000000000e+00 0.0000000000000000e+00  0.0000000000000000e+00 0.0000000000000000e+00 0.0000000000000000e+00  0.0000000000000000e+00 0.0000000000000000e+00 0.0000000000000000e+00  0.0000000000000000e+00 0.0000000000000000e+00 0.0000000000000000e+00  0.0000000000000000e+00 0.0000000000000000e+00 0.0000000000000000e+00  -1.4553747968297224e-05 5.2276187880717581e-05 0.0000000000000000e+00  -7.2554035245645000e-03 1.7959183673469389e-01 0.0000000000000000e+00  5.9196180311294426e-05 4.9363887718204154e-04 0.0000000000000000e+00  -6.7814942934972587e-05 4.4868123067855740e-04 0.0000000000000000e+00  1.0823594895357181e-04 1.3519791342726884e-04 0.0000000000000000e+00  -7.3820483012815028e-03 1.7959183673469389e-01 0.0000000000000000e+00  -7.9698632595369776e-03 1.7874778193606100e-01 0.0000000000000000e+00  4.4692497293220097e-05 2.8918534792002489e-04 0.0000000000000000e+00  -7.1561429657093978e-03 1.7959183673469389e-01 0.0000000000000000e+00  -1.3862212279578813e-04 1.5313175267712468e-04 0.0000000000000000e+00  -6.0028594601310600e-05 3.2451367789148455e-04 0.0000000000000000e+00  -2.6904432351434952e-03 1.7447100951918129e-01 0.0000000000000000e+00  -7.4184419644559869e-03 1.7936548946405226e-01 0.0000000000000000e+00  5.5008613393440356e-05 1.4943234279794857e-04 0.0000000000000000e+00  -7.0643143086104249e-03 1.7931648078703724e-01 0.0000000000000000e+00  -7.1920998305720672e-05 1.7383470083736280e-04 0.0000000000000000e+00  -7.1857588047531248e-03 1.7948795382145405e-01 0.0000000000000000e+00  2.6089615896147061e-05 2.4225102136746091e-04 0.0000000000000000e+00  -7.3415062002650227e-03 1.7945129985331554e-01 0.0000000000000000e+00  -1.5742140983006226e-04 3.8917750603669968e-04 0.0000000000000000e+00  -3.5554552039104281e-05 2.6938779026544331e-04 0.0000000000000000e+00  -4.9885040686627069e-05 6.3501719825726017e-05 0.0000000000000000e+00  3.0786647203718833e-05 5.6059470197866706e-05 0.0000000000000000e+00  1.2592058612572417e-04 4.0080592668732817e-04 0.0000000000000000e+00  -7.0317197509380380e-03 1.7939156583541851e-01 0.0000000000000000e+00  7.8638145092899814e-05 2.6961449619405156e-04 0.0000000000000000e+00  -1.5812525131427216e-04 2.3593850311921433e-04 0.0000000000000000e+00  -7.4768311675933565e-03 1.7944697116650377e-01 0.0000000000000000e+00  -7.1178198066768174e-03 1.7959183673469389e-01 0.0000000000000000e+00  1.2763589648818980e-04 2.0897910475603418e-04 0.0000000000000000e+00  -1.0088919637431804e-04 3.0484192531410109e-04 0.0000000000000000e+00  -7.4262804421170239e-03 1.7959183673469389e-01 0.0000000000000000e+00  -7.5577335655585490e-06 2.4717425906807727e-05 0.0000000000000000e+00  -7.2615108959549800e-03 1.7945673689485339e-01 0.0000000000000000e+00  2.0540074811365645e-04 6.5295749444416564e-04 0.0000000000000000e+00  -8.7076198242992556e-05 8.2186230182092261e-05 0.0000000000000000e+00  -1.6679469825470663e-05 3.8413845585027388e-04 0.0000000000000000e+00  -2.0641934350060410e-04 5.8684147576603741e-04 0.0000000000000000e+00  5.9351139301537598e-06 3.4719001222985015e-04 0.0000000000000000e+00  5.7592112714457234e-05 7.3543598008326801e-05 0.0000000000000000e+00  -7.1966109548819487e-03 1.7959183673469389e-01 0.0000000000000000e+00  -7.3240489423386877e-03 1.7959183673469392e-01 0.0000000000000000e+00  -3.5582090264493328e-05 3.1258457964043914e-04 0.0000000000000000e+00  -7.0828986558362358e-03 1.7946054379201523e-01 0.0000000000000000e+00  2.3686164960753295e-05 3.5154137021589031e-04 0.0000000000000000e+00  -7.1411919561212853e-03 1.7949872918719248e-01 0.0000000000000000e+00  7.8566633244034960e-05 2.1039596264051970e-04 0.0000000000000000e+00  -1.0119845784764012e-04 2.3808993427532334e-04 0.0000000000000000e+00  -7.4421155973401322e-03 1.7947644642238675e-01 0.0000000000000000e+00  -4.5810243634644506e-05 7.5680499115320099e-05 0.0000000000000000e+00  -4.7312625179433352e-05 1.4022811934381768e-04 0.0000000000000000e+00  1.1076359851725097e-04 4.8890112290447590e-04 0.0000000000000000e+00  4.9972820675131939e-05 2.3293629221796081e-04 0.0000000000000000e+00  -6.8739394086528016e-03 1.7885124845288175e-01 0.0000000000000000e+00  -1.6453852790789241e-04 2.8121422661048272e-04 0.0000000000000000e+00  3.7572783923057936e-05 1.2371758648684915e-04 0.0000000000000000e+00  3.2824016389200004e-05 6.3068762056921472e-05 0.0000000000000000e+00  -6.3341746535665590e-05 2.6382581087213488e-04 0.0000000000000000e+00  -8.5173955197442565e-05 1.3406216070541380e-04 0.0000000000000000e+00  -7.4002218499705707e-03 1.7948756920057354e-01 0.0000000000000000e+00  -7.3869198403163942e-03 1.7893719977219566e-01 0.0000000000000000e+00  7.2618702821353594e-05 1.4329979405476947e-04 0.0000000000000000e+00  1.4614889641827977e-04 2.4121594270038455e-04 0.0000000000000000e+00  2.9587516529647044e-04 6.4445623941671536e-04 0.0000000000000000e+00  -7.4467956300116721e-03 1.7899332331806947e-01 0.0000000000000000e+00  2.8860370143021896e-05 2.2192915149740882e-04 0.0000000000000000e+00  -2.4333202684081919e-05 2.9216363963964032e-05 0.0000000000000000e+00  1.6478640967013739e-05 1.5462739577463264e-04 0.0000000000000000e+00  -8.0512209388981376e-03 1.7742135462149430e-01 0.0000000000000000e+00  -6.5959484793836744e-05 2.1844793061865449e-04 0.0000000000000000e+00  1.2740026730886791e-05 2.5051435984688362e-05 0.0000000000000000e+00  -2.6637681432768515e-05 1.6023114642094467e-04 0.0000000000000000e+00  -7.3583526311957054e-03 1.7952276264389896e-01 0.0000000000000000e+00  -2.8589441586870911e-05 4.3490064331166152e-05 0.0000000000000000e+00  6.2098295445307380e-05 9.5152439226468970e-05 0.0000000000000000e+00  1.4938954008691291e-05 4.6610049671426033e-05 0.0000000000000000e+00  -1.1139307054803849e-04 4.3602504153693864e-04 0.0000000000000000e+00  -7.2962986530803629e-03 1.7952033299193801e-01 0.0000000000000000e+00  -7.2221374487908951e-03 1.7953514981708035e-01 0.0000000000000000e+00  -7.4878877288551251e-03 1.7941470004395133e-01 0.0000000000000000e+00  -8.1716023645476285e-05 2.8229458981750602e-04 0.0000000000000000e+00  -1.1647591335026521e-04 1.9102969392716018e-04 0.0000000000000000e+00  6.3118723876375943e-05 2.5082071312327659e-04 0.0000000000000000e+00  -7.1306126125306353e-03 1.7953553976177677e-01 0.0000000000000000e+00  -6.9937735715245230e-03 1.7935750849701057e-01 0.0000000000000000e+00  -7.0875565704995721e-03 1.7951133758192134e-01 0.0000000000000000e+00  1.2021536068036153e-04 5.6750201970937812e-04 0.0000000000000000e+00  -2.4653571107851372e-05 3.9263893783550213e-04 0.0000000000000000e+00  1.0132930615727990e-04 2.6870681411987683e-04 0.0000000000000000e+00  -1.5895128348727519e-04 2.7227736444503602e-04 0.0000000000000000e+00  -7.4675131636110286e-03 1.7952128123526098e-01 0.0000000000000000e+00  -7.1752534676679516e-03 1.7959183673469389e-01 0.0000000000000000e+00  -6.7588824303357196e-06 3.6851683603608871e-04 0.0000000000000000e+00  4.9735279139871154e-05 1.0044706432580366e-04 0.0000000000000000e+00  -7.3819344800692775e-03 1.7942915463095815e-01 0.0000000000000000e+00  3.1642819302631062e-05 2.8575831593115970e-04 0.0000000000000000e+00  -8.0395774430006483e-05 9.5635952677050964e-05 0.0000000000000000e+00  -3.3940285033851698e-04 7.0846301511787743e-04 0.0000000000000000e+00  -4.0357802235047706e-05 3.4853553263110629e-04 0.0000000000000000e+00  -1.7490323314017709e-05 1.9681812298813129e-04 0.0000000000000000e+00  6.7235583028465258e-05 1.9186855848147928e-04 0.0000000000000000e+00  -4.3016790094337072e-05 3.1579216355872008e-04 0.0000000000000000e+00  -4.6475170875868064e-06 3.2497780055766020e-04 0.0000000000000000e+00  -2.3300609240788615e-04 5.1202368839365817e-04 0.0000000000000000e+00  -7.1739641083622321e-03 1.7953540934080695e-01 0.0000000000000000e+00  2.0119129114058419e-04 4.0498669451181175e-04 0.0000000000000000e+00  -8.0028819749869737e-05 2.3327551976219050e-04 0.0000000000000000e+00  9.2844686527589017e-05 4.6133576020826846e-04 0.0000000000000000e+00  -7.0183909362236205e-03 1.7932837335196281e-01 0.0000000000000000e+00  -8.9970347748928592e-05 1.8387650552113033e-04 0.0000000000000000e+00  -7.4059768467640980e-03 1.7959183673469387e-01 0.0000000000000000e+00  9.4899259792134773e-05 1.8447142740560832e-04 0.0000000000000000e+00  -7.4553856202723302e-03 1.7940632661969957e-01 0.0000000000000000e+00  2.1330618953360368e-04 5.5476892256470527e-04 0.0000000000000000e+00  1.2855707607820147e-04 2.4104637067774257e-04 0.0000000000000000e+00  -1.2759465967982200e-04 3.0403585010036128e-04 0.0000000000000000e+00  -7.4448481660103361e-03 1.7959183673469389e-01 0.0000000000000000e+00  6.1957042081125263e-05 2.0320735768975055e-04 0.0000000000000000e+00  -6.1282483771622507e-05 9.5817898564567338e-05 0.0000000000000000e+00  4.2681538561774333e-05 1.9524593086046963e-04 0.0000000000000000e+00  -7.4175930728328492e-03 1.7952670104709695e-01 0.0000000000000000e+00  -5.4083678677646814e-05 2.1982185469268217e-04 0.0000000000000000e+00  -2.3231226543649397e-04 4.3852772875123977e-04 0.0000000000000000e+00  9.7245352257088510e-05 2.3695561138203867e-04 0.0000000000000000e+00  -7.1179163316879923e-03 1.7942462944411405e-01 0.0000000000000000e+00  -1.2737080365698777e-04 2.5467164810201036e-04 0.0000000000000000e+00  -7.4462614395431710e-03 1.7952056628127860e-01 0.0000000000000000e+00  -1.2954462056032019e-05 2.6012792721637939e-04 0.0000000000000000e+00  -2.8201540234542209e-06 1.1689760625357308e-05 0.0000000000000000e+00  2.7634972720386254e-05 5.8663376789163310e-05 0.0000000000000000e+00  -7.1105426848430747e-03 1.7947605308501108e-01 0.0000000000000000e+00  -2.7607759986369513e-05 3.6667980457827516e-05 0.0000000000000000e+00  1.0858522684072026e-05 3.3175010842378224e-05 0.0000000000000000e+00  -1.1076904357405277e-04 1.6260903111683307e-04 0.0000000000000000e+00  4.0854116145652448e-05 6.5306725076865669e-05 0.0000000000000000e+00  8.4598200351150782e-05 1.0595922120975599e-04 0.0000000000000000e+00  -5.7366065474321947e-05 6.4663904244166646e-05 0.0000000000000000e+00  -7.2817290131722409e-03 1.7925951249609318e-01 0.0000000000000000e+00  -3.3510106245866328e-05 6.7586397302627700e-05 0.0000000000000000e+00  -7.7576844909410940e-05 1.5508513329385231e-04 0.0000000000000000e+00  3.3790826399330757e-04 7.6244713759928914e-04 0.0000000000000000e+00  -7.2195058717523831e-03 1.7947380875382968e-01 0.0000000000000000e+00  -7.3090621827037261e-03 1.7941949405652322e-01 0.0000000000000000e+00  -7.2567921322490058e-03 1.7952760495940828e-01 0.0000000000000000e+00  -7.4253009783013212e-03 1.7944310158606600e-01 0.0000000000000000e+00  -5.4286805171480760e-05 3.9150367750455053e-04 0.0000000000000000e+00  4.1607461419665199e-06 2.4713193345991921e-04 0.0000000000000000e+00  -8.7372374254878488e-05 3.4820796877346760e-04 0.0000000000000000e+00  6.7231820658476200e-05 1.6962152659590692e-04 0.0000000000000000e+00  2.7836571493620889e-05 3.1270310736576938e-04 0.0000000000000000e+00  1.5165477408742433e-05 4.3236154036028053e-04 0.0000000000000000e+00  -6.9535835549405216e-03 1.7926319629957199e-01 0.0000000000000000e+00  -1.1658993794053338e-04 1.1407564240829085e-04 0.0000000000000000e+00  -7.1372843140819712e-03 1.7959183673469389e-01 0.0000000000000000e+00  -1.5209615715708723e-04 1.9522443805205486e-04 0.0000000000000000e+00  -7.9071790547568382e-05 3.1064792759140868e-04 0.0000000000000000e+00  -7.5096139901298974e-03 1.7935221511093336e-01 0.0000000000000000e+00  -7.2231281304885554e-03 1.7959183673469389e-01 0.0000000000000000e+00  -1.2679659236687965e-04 5.1374716334188348e-04 0.0000000000000000e+00  2.2935595343201047e-05 5.6664064335758161e-05 0.0000000000000000e+00  8.6589863799004635e-05 1.0072905936736270e-04 0.0000000000000000e+00  1.2165066952996184e-04 1.7265224613153188e-04 0.0000000000000000e+00  -7.3546245974884170e-03 1.7959183673469389e-01 0.0000000000000000e+00  -7.2903607147137735e-03 1.7959183673469389e-01 0.0000000000000000e+00  6.0487127226675957e-05 2.7543738212916833e-04 0.0000000000000000e+00  -7.0962947785198861e-03 1.7959183673469389e-01 0.0000000000000000e+00  -7.0611086571520073e-03 1.7949356300846050e-01 0.0000000000000000e+00  -5.2233304942116710e-05 6.1002260225374970e-05 0.0000000000000000e+00  -7.1096959175803841e-03 1.7952712104055310e-01 0.0000000000000000e+00  2.3961487176970348e-05 8.8465194976104138e-05 0.0000000000000000e+00  -7.4897245738815593e-05 1.5945624462109485e-04 0.0000000000000000e+00  -7.0579814796380017e-03 1.7943597699918870e-01 0.0000000000000000e+00  1.0266540428911132e-04 1.2564516283215693e-04 0.0000000000000000e+00  -2.5077354258853136e-05 3.2175803421081741e-05 0.0000000000000000e+00  -1.0116592820890271e-04 2.7607112561337156e-04 0.0000000000000000e+00  4.3029905746894347e-05 1.0836723390643472e-04 0.0000000000000000e+00  -4.5778381351467887e-06 3.5146943199654717e-05 0.0000000000000000e+00  -1.3816521054471525e-04 3.0682424578708792e-04 0.0000000000000000e+00  -7.3300551011874259e-03 1.7951518749816675e-01 0.0000000000000000e+00  -5.0630822801076079e-06 1.4071659100254089e-04 0.0000000000000000e+00  -7.1579396679739707e-03 1.7948372051979344e-01 0.0000000000000000e+00  -3.5798357368202363e-04 7.0184391020997852e-04 0.0000000000000000e+00  -2.9738789922241728e-05 9.1690834826633751e-05 0.0000000000000000e+00  -7.4598929095021508e-03 1.7946291229678180e-01 0.0000000000000000e+00  -7.1569169682307683e-03 1.7954693635491439e-01 0.0000000000000000e+00  -4.2774278387913749e-05 5.8407745224493665e-05 0.0000000000000000e+00  -4.4992806377362651e-04 8.5346148769607224e-04 0.0000000000000000e+00  -7.1860392871763937e-03 1.7940123729952365e-01 0.0000000000000000e+00  1.8690571062033421e-05 3.0201847278760648e-05 0.0000000000000000e+00  -6.2498383343056920e-05 1.2225349636106755e-04 0.0000000000000000e+00  3.0830245419761216e-05 4.2163616970057431e-04 0.0000000000000000e+00  6.3589821350571612e-05 3.5996213374968604e-04 0.0000000000000000e+00  -5.1363901488284483e-05 1.1218312555517393e-04 0.0000000000000000e+00  2.3359071314416695e-04 4.4220914659319569e-04 0.0000000000000000e+00  -7.3688488763203564e-03 1.7939161163898334e-01 0.0000000000000000e+00  -6.0650140567777074e-05 1.7355139232379458e-04 0.0000000000000000e+00  3.4859257402201875e-05 6.4266661027651424e-05 0.0000000000000000e+00  3.1921346436663551e-05 1.7304159994751408e-04 0.0000000000000000e+00  7.8172897432245931e-05 2.4621214416888602e-04 0.0000000000000000e+00  -7.1953803608689132e-03 1.7953036715751838e-01 0.0000000000000000e+00  5.2029892246181194e-05 1.8475874013318777e-04 0.0000000000000000e+00  5.0366036754697625e-05 2.6470241529093431e-04 0.0000000000000000e+00  -6.5932507749972430e-05 2.9671228187708149e-04 0.0000000000000000e+00  -4.1354918968613951e-05 1.9867086234071193e-04 0.0000000000000000e+00  -7.4452615564899694e-03 1.7922303872482356e-01 0.0000000000000000e+00  3.7959451215030835e-04 7.5798071489242532e-04 0.0000000000000000e+00  3.7740986784811579e-04 8.8413535434032919e-04 0.0000000000000000e+00  -1.0315927707483071e-04 1.3263996032868855e-04 0.0000000000000000e+00  -7.4045789307713265e-03 1.7935722282019015e-01 0.0000000000000000e+00  6.5313821926836103e-06 1.0922582064285991e-04 0.0000000000000000e+00  9.2586324157781303e-05 1.5118800805281898e-04 0.0000000000000000e+00  -1.1363522494218765e-05 4.3241987315662943e-05 0.0000000000000000e+00  -7.4042699683167287e-03 1.7943273233568791e-01 0.0000000000000000e+00  -8.7599612394765079e-05 9.0945541326034477e-04 0.0000000000000000e+00  2.2387369058833508e-04 3.8825573737445474e-04 0.0000000000000000e+00  -7.3962718346820546e-03 1.7954444112827347e-01 0.0000000000000000e+00  6.9574548943174372e-05 1.2878599901912922e-04 0.0000000000000000e+00  -6.9505617699115816e-03 1.7896518828333013e-01 0.0000000000000000e+00  2.1673424105181889e-04 4.9046718599225683e-04 0.0000000000000000e+00  -6