<?xml version="1.0"?>
<VTKFile type="UnstructuredGrid"  version="0.1"  >
<UnstructuredGrid>
<Piece  NumberOfPoints="5173" NumberOfCells="9966">
<Points>
<DataArray  type="Float64"  NumberOfComponents="3"  format="ascii">-0.5 0.5 0  -0.5 -0.5 0  0.5 -0.5 0  0.5 0.5 0  0.1998669600420274 0.02125869712947308 0  0.201 0 0  0.1998669600420274 -0.02125869712947312 0  0.1964806779635733 -0.04227652472592507 0  0.1908795216936763 -0.06281534240438978 0  0.1831269545709826 -0.08264243715367564 0  0.1733108162787611 -0.1015331600677681 0  0.1615423275861927 -0.1192734717077003 0  0.1479548301726135 -0.1356623672539232 0  0.1327022758130076 -0.1505141539712278 0  0.1159574820428814 -0.1636605551816338 0  0.09791017406652992 -0.1749526169063923 0  0.07876483509466403 -0.1842623955740826 0  0.05873838946792427 -0.1914844076724011 0  0.03805774481742277 -0.1965368249185042 0  0.01695722111061653 -0.1993624014061501 0  -0.004324104287555032 -0.1999291222246905 0  -0.02554510545674447 -0.1982305662008014 0  -0.04646533997422303 -0.194285978652942 0  -0.06684777322360611 -0.1881400533342067 0  -0.08646146409177112 -0.1798624260342438 0  -0.1050841816239485 -0.1695468855779342 0  -0.1225049229892384 -0.1573103111605285 0  -0.138526304226997 -0.143291348059663 0  -0.1529667966859812 -0.127648836728964 0  -0.165662783816503 -0.1105600130722386 0  -0.1764704150113143 -0.0922185002898652 0  -0.1852672354904677 -0.07283211505056446 0  -0.1919535737629032 -0.05262051284550421 0  -0.1964536709442689 -0.03181269920381437 0  -0.1987165391353524 -0.0106444349684357 0  -0.1987165391353524 0.01064443496843575 0  -0.1964536709442689 0.03181269920381442 0  -0.1919535737629032 0.05262051284550433 0  -0.1852672354904677 0.07283211505056443 0  -0.1764704150113143 0.09221850028986515 0  -0.165662783816503 0.1105600130722387 0  -0.1529667966859812 0.1276488367289641 0  -0.1385263042269969 0.1432913480596631 0  -0.1225049229892383 0.1573103111605285 0  -0.1050841816239485 0.1695468855779342 0  -0.08646146409177108 0.1798624260342438 0  -0.06684777322360606 0.1881400533342067 0  -0.04646533997422297 0.194285978652942 0  -0.02554510545674437 0.1982305662008015 0  -0.004324104287554939 0.1999291222246905 0  0.01695722111061662 0.19936240140615 0  0.03805774481742286 0.1965368249185042 0  0.05873838946792424 0.1914844076724011 0  0.07876483509466414 0.1842623955740826 0  0.09791017406653006 0.1749526169063922 0  0.1159574820428814 0.1636605551816338 0  0.1327022758130078 0.1505141539712277 0  0.1479548301726135 0.1356623672539232 0  0.1615423275861927 0.1192734717077003 0  0.1733108162787612 0.101533160067768 0  0.1831269545709827 0.08264243715367564 0  0.1908795216936763 0.06281534240438975 0  0.1964806779635734 0.04227652472592486 0  0 -0.5 0  0 0.5 0  -0.5 0 0  0.5 0 0  0.25 -0.5 0  0.25 0.5 0  0.5 0.25 0  0.5 -0.25 0  -0.25 0.5 0  -0.25 -0.5 0  -0.5 -0.25 0  -0.5 0.25 0  0.2918258229480683 0.2918258229480682 0  0.2865867850624828 -0.2932931940421196 0  -0.2962949893701896 0.274449924397287 0  -0.2913160373738303 -0.2913160373738304 0  -0.125 0.3636995408959175 0  0.3637738468862107 -0.1261303957107176 0  0.125 0.3665964626830409 0  0.3640958654762797 0.1232161970438493 0  -0.3624000654276585 -0.1218337159209422 0  -0.125 -0.3668200952157802 0  0.125 -0.3712838880907947 0  -0.3600991828528437 0.1089843577122111 0  -0.5 0.375 0  0.5 -0.375 0  -0.375 -0.5 0  0.5 0.375 0  -0.375 0.5 0  0.375 -0.5 0  -0.5 -0.375 0  0.375 0.5 0  0.0006860903712339345 -0.3306266888645853 0  -0.000109901520948898 0.3746323380112415 0  -0.5 0.125 0  -0.125 -0.5 0  -0.5 -0.125 0  0.5 0.125 0  0.5 -0.125 0  0.125 -0.5 0  -0.125 0.5 0  0.125 0.5 0  0.3748576787807123 -0.001471205609738957 0  -0.3738828512115154 0.3738828512115154 0  -0.3827617049088436 -0.006210238480157219 0  -0.2429234745416257 0.3810213699917807 0  0.3769180353829246 -0.3769180353829246 0  -0.3777687524152424 -0.3777687524152424 0  0.3780704009792175 0.3780704009792175 0  -0.1776483227107271 -0.2618630460446135 0  -0.2604485542051718 -0.1787215021996984 0  -0.1798547561877991 0.2599748505350166 0  0.3864703130478905 -0.2380123189195306 0  0.1785319646943122 0.2625417448451246 0  0.261692611046212 0.1791168901036931 0  0.2607171500730768 -0.1799460669666111 0  0.1733970740599892 -0.2651674952354912 0  -0.3880520258539732 -0.2322407641539351 0  -0.2352016482221373 -0.388638232840279 0  0.2734696242623063 0.3964265996649794 0  0.3883795026617865 0.233417864889234 0  0.2738670858792859 -0.3976331321261044 0  -0.2491638954018168 0.1780101911767213 0  -0.3926686215746083 0.2165776265637375 0  0.07109213498061834 0.2869023807262104 0  -0.2934183534017453 0.03147305416145122 0  -0.08119265072200343 -0.2826195781877594 0  0.2836913223256923 -0.07709296110799269 0  -0.0558729689268372 0.2928347535333279 0  0.2830965643121598 0.07693076420704528 0  0.08122371629649494 -0.2825469282280794 0  -0.2767834230915197 -0.08819590430941976 0  0.1875 0.4332982313415205 0  -0.04303186331845871 -0.4151376431551652 0  0.190970733019215 -0.4322714131851434 0  0.06249999999999999 -0.4356419440453974 0  0.4328061849987423 0.06633847947711793 0  0.0664712649494027 0.4332982313415205 0  -0.06249999999999998 0.4373709104419552 0  0.4341377633941729 0.309372588857957 0  -0.4374372828954266 -0.3125 0  -0.3104572497507675 -0.4353019888851174 0  0.4374701104890421 -0.3125 0  -0.3116291712721947 0.4366347031852421 0  -0.4374901042687089 0.3125 0  -0.4363926600558238 0.4363926600558238 0  -0.5 0.0625 0  0.5 -0.0625 0  0.5 -0.4375 0  -0.4375 -0.5 0  0.5 0.4375 0  -0.1875 0.5 0  -0.4323246583268963 -0.07454303397230311 0  0.2154950463309389 -0.3375719358844427 0  0.206977802238796 0.342973363124546 0  0.4322596267199844 -0.1704803839098939 0  -0.1690769129391571 -0.4334100476078901 0  0.5 0.1875 0  -0.5 -0.1875 0  0.2967149326504868 -2.965984816150069e-05 0  -0.2579082457853068 0.1006999711688991 0  -0.4261732609354634 -0.1652001701086123 0  0.4197274728231854 -0.06828306080156128 0  0.4316260558094222 0.15625 0  -0.1765935890523967 0.4225213035878151 0  -0.326101012911042 0.1780020696215199 0  -0.3639018823524438 -0.3051829074366289 0  -0.4219359613016062 0.06132313683084987 0  -0.368871881750981 0.2861301036496543 0  -0.3031928482819811 -0.3630024307590357 0  0.3125 0.5 0  0.3355547846059301 -0.437829382399898 0  0.3620936304880762 0.3078025934392096 0  -0.4265460575686851 0.1475964618934338 0  0.4375 -0.5 0  -0.5 -0.4375 0  0.4375 0.5 0  0.3587983613906559 -0.3058906763528768 0  -0.1889171018677358 -0.3331988582480375 0  0.3319769361362775 -0.1908238194547704 0  0.3337713745363715 0.4328433800405805 0  -0.3319644446835826 -0.1870886352472088 0  0.3329253892881625 0.1878611701133833 0  0.4281511341447153 -0.4281511341447153 0  -0.232840147849867 0.3093215053326949 0  -0.40625 -0.4395608850352885 0  0.428794887401249 0.428794887401249 0  -0.3380841551254475 -0.05794700007688498 0  0.008054260670409629 -0.2648994211243904 0  0.1899220001124564 -0.1947534447033338 0  -0.3080416507322476 0.3708200057439822 0  -0.06307278823153059 -0.3455430469652901 0  0.06447087227249242 -0.3459780260685607 0  0.1914876772934198 0.1922953616824615 0  0.1267822167193652 -0.4357424153550361 0  -0.1100367963981227 0.2468729543145758 0  -0.1040301628609493 -0.4382371732506554 0  0.008496887133013969 0.3088587185741126 0  -0.1939711685411953 -0.1799889819170536 0  0.1169089524024441 0.2383640108781663 0  -0.5 0.1875 0  -0.06301873836730842 0.3744639870876723 0  0.0612272731888486 0.3516549422231338 0  0.0001842875295821901 0.4373159592812666 0  0.315570863666392 0.3499038328432952 0  0.43737589643705 0.003767781375474147 0  0.3480437072584214 -0.06190943679164183 0  0.3704548124556613 0.06095691071954262 0  0.3139725644615085 -0.3495769689516506 0  0.5 -0.1875 0  -0.5 -0.0625 0  -0.5 0.3125 0  -0.1875 -0.5 0  -0.3125 0.5 0  -0.3125 -0.5 0  -0.5 -0.3125 0  0.5 0.3125 0  -0.0625 0.5 0  0.5 0.0625 0  0.0625 -0.5 0  0.1875 -0.5 0  0.3125 -0.5 0  0.1875 0.5 0  0.0625 0.5 0  0.5 -0.3125 0  -0.4375 0.5 0  -0.5 0.4375 0  -0.0625 -0.5 0  -0.3740130545720807 0.4376162026208867 0  0.2356432480937504 -0.1203529309141897 0  0.2354253261260549 0.120280228505195 0  -0.4358389466402443 0.374436564627095 0  -0.1837098359759774 0.1929485386776155 0  -0.1210077767998366 -0.2331474219302516 0  -0.4388230181844467 -0.3736756227341544 0  0.2385916116983025 -0.2446215854929363 0  0.01618154697154811 -0.392205807603664 0  0.3033224724982568 0.1345019962362828 0  0.1269856324747013 0.4273682536406486 0  -0.2618767198442009 -0.02513308225372456 0  -0.1869024341550137 0.3523407916866587 0  0.4460792014197047 0.2150519456240759 0  -0.228067921023645 -0.1261420173261541 0  0.4375111104956734 0.3693541778847931 0  -0.2344434115929863 0.441225502334267 0  -0.1349409233725989 -0.3081519167298867 0  0.2361921270004774 0.236858231392783 0  -0.1134625589296566 0.3058057213872041 0  0.1364902237265291 -0.2193600350069504 0  -0.231009496195906 -0.2899916451544192 0  -0.4420301468408164 -0.0153626464053197 0  -0.3638407636123014 0.04989392276612995 0  -0.2281634567999949 -0.2293698735254731 0  -0.2404608239114909 0.2480193450766527 0  0.1548586079872366 0.3161601351946364 0  -0.2905808065687782 -0.2309892133488608 0  0.1583090638615736 -0.3223807786382032 0  0.3037640590628244 -0.1367963242859415 0  0.441474411355182 -0.3710236808063671 0  -0.1184457037417267 0.4214861255011078 0  0.3280783743867655 -0.2503846686276005 0  0.4421147536667354 -0.254616967737483 0  -0.4419160956032748 -0.2544205585064326 0  -0.3074463395544132 -0.1359279022829991 0  0.3366964226424555 0.256991018383815 0  -0.4508616135570574 0.21875 0  -0.3395120610056381 0.2372377549435862 0  -0.2261617732606898 -0.4465036260914809 0  0.2350726063974556 0.2936290504086719 0  0.007756726855498133 0.253726523067807 0  0.2816091581197124 -0.4531847002458751 0  0.002693579241951911 -0.4452927028974097 0  0.2614770372227774 0.3432624384800261 0  0.2905620892368345 0.2263682042801985 0  -0.2876366597373845 0.2178464403043631 0  0.2807413030307
[...]
<PointData  Vectors="f_44"> 
<DataArray  type="Float64"  Name="f_44"  NumberOfComponents="3" format="ascii">-6.9030908899264188e-03 1.7551020408163270e-01 0.0000000000000000e+00  -1.6922710868591271e-04 3.2447192611545858e-04 0.0000000000000000e+00  1.3600822080090649e-04 2.8577120564476233e-04 0.0000000000000000e+00  -7.3227466657002542e-03 1.7551020408163268e-01 0.0000000000000000e+00  0.0000000000000000e+00 0.0000000000000000e+00 0.0000000000000000e+00  0.0000000000000000e+00 0.0000000000000000e+00 0.0000000000000000e+00  0.0000000000000000e+00 0.0000000000000000e+00 0.0000000000000000e+00  0.0000000000000000e+00 0.0000000000000000e+00 0.0000000000000000e+00  0.0000000000000000e+00 0.0000000000000000e+00 0.0000000000000000e+00  0.0000000000000000e+00 0.0000000000000000e+00 0.0000000000000000e+00  0.0000000000000000e+00 0.0000000000000000e+00 0.0000000000000000e+00  0.0000000000000000e+00 0.0000000000000000e+00 0.0000000000000000e+00  0.0000000000000000e+00 0.0000000000000000e+00 0.0000000000000000e+00  0.0000000000000000e+00 0.0000000000000000e+00 0.0000000000000000e+00  0.0000000000000000e+00 0.0000000000000000e+00 0.0000000000000000e+00  0.0000000000000000e+00 0.0000000000000000e+00 0.0000000000000000e+00  0.0000000000000000e+00 0.0000000000000000e+00 0.0000000000000000e+00  0.0000000000000000e+00 0.0000000000000000e+00 0.0000000000000000e+00  0.0000000000000000e+00 0.0000000000000000e+00 0.0000000000000000e+00  0.0000000000000000e+00 0.0000000000000000e+00 0.0000000000000000e+00  0.0000000000000000e+00 0.0000000000000000e+00 0.0000000000000000e+00  0.0000000000000000e+00 0.0000000000000000e+00 0.0000000000000000e+00  0.0000000000000000e+00 0.0000000000000000e+00 0.0000000000000000e+00  0.0000000000000000e+00 0.0000000000000000e+00 0.0000000000000000e+00  0.0000000000000000e+00 0.0000000000000000e+00 0.0000000000000000e+00  0.0000000000000000e+00 0.0000000000000000e+00 0.0000000000000000e+00  0.0000000000000000e+00 0.0000000000000000e+00 0.0000000000000000e+00  0.0000000000000000e+00 0.0000000000000000e+00 0.0000000000000000e+00  0.0000000000000000e+00 0.0000000000000000e+00 0.0000000000000000e+00  0.0000000000000000e+00 0.0000000000000000e+00 0.0000000000000000e+00  0.0000000000000000e+00 0.0000000000000000e+00 0.0000000000000000e+00  0.0000000000000000e+00 0.0000000000000000e+00 0.0000000000000000e+00  0.0000000000000000e+00 0.0000000000000000e+00 0.0000000000000000e+00  0.0000000000000000e+00 0.0000000000000000e+00 0.0000000000000000e+00  0.0000000000000000e+00 0.0000000000000000e+00 0.0000000000000000e+00  0.0000000000000000e+00 0.0000000000000000e+00 0.0000000000000000e+00  0.0000000000000000e+00 0.0000000000000000e+00 0.0000000000000000e+00  0.0000000000000000e+00 0.0000000000000000e+00 0.0000000000000000e+00  0.0000000000000000e+00 0.0000000000000000e+00 0.0000000000000000e+00  0.0000000000000000e+00 0.0000000000000000e+00 0.0000000000000000e+00  0.0000000000000000e+00 0.0000000000000000e+00 0.0000000000000000e+00  0.0000000000000000e+00 0.0000000000000000e+00 0.0000000000000000e+00  0.0000000000000000e+00 0.0000000000000000e+00 0.0000000000000000e+00  0.0000000000000000e+00 0.0000000000000000e+00 0.0000000000000000e+00  0.0000000000000000e+00 0.0000000000000000e+00 0.0000000000000000e+00  0.0000000000000000e+00 0.0000000000000000e+00 0.0000000000000000e+00  0.0000000000000000e+00 0.0000000000000000e+00 0.0000000000000000e+00  0.0000000000000000e+00 0.0000000000000000e+00 0.0000000000000000e+00  0.0000000000000000e+00 0.0000000000000000e+00 0.0000000000000000e+00  0.0000000000000000e+00 0.0000000000000000e+00 0.0000000000000000e+00  0.0000000000000000e+00 0.0000000000000000e+00 0.0000000000000000e+00  0.0000000000000000e+00 0.0000000000000000e+00 0.0000000000000000e+00  0.0000000000000000e+00 0.0000000000000000e+00 0.0000000000000000e+00  0.0000000000000000e+00 0.0000000000000000e+00 0.0000000000000000e+00  0.0000000000000000e+00 0.0000000000000000e+00 0.0000000000000000e+00  0.0000000000000000e+00 0.0000000000000000e+00 0.0000000000000000e+00  0.0000000000000000e+00 0.0000000000000000e+00 0.0000000000000000e+00  0.0000000000000000e+00 0.0000000000000000e+00 0.0000000000000000e+00  0.0000000000000000e+00 0.0000000000000000e+00 0.0000000000000000e+00  0.0000000000000000e+00 0.0000000000000000e+00 0.0000000000000000e+00  0.0000000000000000e+00 0.0000000000000000e+00 0.0000000000000000e+00  0.0000000000000000e+00 0.0000000000000000e+00 0.0000000000000000e+00  0.0000000000000000e+00 0.0000000000000000e+00 0.0000000000000000e+00  -1.5899016746937301e-05 5.5636524652686680e-05 0.0000000000000000e+00  -7.1003865224605481e-03 1.7551020408163265e-01 0.0000000000000000e+00  6.3011738631238743e-05 5.2607648933215736e-04 0.0000000000000000e+00  -7.2000648117278313e-05 4.7687379940390402e-04 0.0000000000000000e+00  1.1473948482042036e-04 1.4361847979461984e-04 0.0000000000000000e+00  -7.2348449058018951e-03 1.7551020408163268e-01 0.0000000000000000e+00  -7.8580151476410690e-03 1.7461419941855774e-01 0.0000000000000000e+00  4.7398027510787928e-05 3.0716109951703727e-04 0.0000000000000000e+00  -6.9949048498502194e-03 1.7551020408163270e-01 0.0000000000000000e+00  -1.4797006050588582e-04 1.6322507527090105e-04 0.0000000000000000e+00  -6.4091898225349263e-05 3.4591043661231911e-04 0.0000000000000000e+00  -2.2327573138371600e-03 1.7003750772416323e-01 0.0000000000000000e+00  -7.2736936271385185e-03 1.7527014416201875e-01 0.0000000000000000e+00  5.8326422249077754e-05 1.5873057212580153e-04 0.0000000000000000e+00  -6.8970089104339917e-03 1.7521676657734264e-01 0.0000000000000000e+00  -7.6775454148832252e-05 1.8529482237496076e-04 0.0000000000000000e+00  -7.0263662206072912e-03 1.7539979364495095e-01 0.0000000000000000e+00  2.7733576959894008e-05 2.5736530505846835e-04 0.0000000000000000e+00  -7.1918660123920933e-03 1.7536091405902371e-01 0.0000000000000000e+00  -1.6730121186318801e-04 4.1338025833161882e-04 0.0000000000000000e+00  -3.7949402912148590e-05 2.8709616227590851e-04 0.0000000000000000e+00  -5.3365226854967016e-05 6.7691159415072166e-05 0.0000000000000000e+00  3.2487151260135787e-05 5.9551432807659334e-05 0.0000000000000000e+00  1.3418653624098465e-04 4.2700422436413120e-04 0.0000000000000000e+00  -6.8623853815456262e-03 1.7529677617817985e-01 0.0000000000000000e+00  8.3378261060469439e-05 2.8634708235135913e-04 0.0000000000000000e+00  -1.6873632981820373e-04 2.5149678051749469e-04 0.0000000000000000e+00  -7.3355541968261814e-03 1.7535609350264608e-01 0.0000000000000000e+00  -6.9540714108961245e-03 1.7551020408163268e-01 0.0000000000000000e+00  1.3537222212914405e-04 2.2197632390777346e-04 0.0000000000000000e+00  -1.0769299542841512e-04 3.2496342670754766e-04 0.0000000000000000e+00  -7.2817701546043284e-03 1.7551020408163268e-01 0.0000000000000000e+00  -8.2557818938675753e-06 2.6306438774777337e-05 0.0000000000000000e+00  -7.1068662994942279e-03 1.7536693264583528e-01 0.0000000000000000e+00  2.1883085765351734e-04 6.9596557607652957e-04 0.0000000000000000e+00  -9.3091477996218175e-05 8.7586048138578733e-05 0.0000000000000000e+00  -1.7854060343993164e-05 4.0941357225096723e-04 0.0000000000000000e+00  -2.1949560988739400e-04 6.2412483957407269e-04 0.0000000000000000e+00  6.3097976419689595e-06 3.6886069241879964e-04 0.0000000000000000e+00  6.0867287113684083e-05 7.8149301001879956e-05 0.0000000000000000e+00  -7.0379906460794278e-03 1.7551020408163265e-01 0.0000000000000000e+00  -7.1732591411838341e-03 1.7551020408163268e-01 0.0000000000000000e+00  -3.7733557367268041e-05 3.3210039682306420e-04 0.0000000000000000e+00  -6.9168284446501187e-03 1.7537037971773725e-01 0.0000000000000000e+00  2.5190288328565871e-05 3.7460476673122995e-04 0.0000000000000000e+00  -6.9789152019921015e-03 1.7541100592021178e-01 0.0000000000000000e+00  8.3300130209466682e-05 2.2348192732951015e-04 0.0000000000000000e+00  -1.0802381892740936e-04 2.5378960598969189e-04 0.0000000000000000e+00  -7.2986174796758488e-03 1.7538757852898942e-01 0.0000000000000000e+00  -4.8922231635262949e-05 8.0679662363413606e-05 0.0000000000000000e+00  -5.0478850062572559e-05 1.4945964588721920e-04 0.0000000000000000e+00  1.1779502223282651e-04 5.2088165448313940e-04 0.0000000000000000e+00  5.3025093450408397e-05 2.4744734280894061e-04 0.0000000000000000e+00  -6.7008396525587476e-03 1.7472418030061973e-01 0.0000000000000000e+00  -1.7484836948423771e-04 2.9845315719887508e-04 0.0000000000000000e+00  3.9886499444891725e-05 1.3141886625589352e-04 0.0000000000000000e+00  3.4772300605883371e-05 6.6984165332606039e-05 0.0000000000000000e+00  -6.7606714308645507e-05 2.8120078389739578e-04 0.0000000000000000e+00  -9.0965598012574336e-05 1.4290706791690255e-04 0.0000000000000000e+00  -7.2541782921347504e-03 1.7539952546109855e-01 0.0000000000000000e+00  -7.2403278737780338e-03 1.7481400965963054e-01 0.0000000000000000e+00  7.6953656144638927e-05 1.5221481645148071e-04 0.0000000000000000e+00  1.5572056419729628e-04 2.5696256391002226e-04 0.0000000000000000e+00  3.1566963128634739e-04 6.8607566831872379e-04 0.0000000000000000e+00  -7.3011007055378109e-03 1.7486993818762372e-01 0.0000000000000000e+00  3.0741964925350399e-05 2.3644963928132572e-04 0.0000000000000000e+00  -2.6053571489362404e-05 3.1146152622631482e-05 0.0000000000000000e+00  1.7523945432466020e-05 1.6424698056033142e-04 0.0000000000000000e+00  -7.9219984699030639e-03 1.7324299660992779e-01 0.0000000000000000e+00  -7.0083402653582622e-05 2.3192024701026339e-04 0.0000000000000000e+00  1.3405995805793074e-05 2.6609778954467327e-05 0.0000000000000000e+00  -2.8414977625543036e-05 1.7075160302402573e-04 0.0000000000000000e+00  -7.2097192978076161e-03 1.7543685253928892e-01 0.0000000000000000e+00  -3.0748082752337139e-05 4.6323373588022846e-05 0.0000000000000000e+00  6.5728359042297919e-05 1.0107671038192773e-04 0.0000000000000000e+00  1.5552025351249426e-05 4.9550370481018075e-05 0.0000000000000000e+00  -1.1830871163784157e-04 4.6342036885907510e-04 0.0000000000000000e+00  -7.1437904560550164e-03 1.7543431286525291e-01 0.0000000000000000e+00  -7.0650885292285019e-03 1.7545006642066777e-01 0.0000000000000000e+00  -7.3473116701670560e-03 1.7532173813168511e-01 0.0000000000000000e+00  -8.7229787852273900e-05 3.0090674794727181e-04 0.0000000000000000e+00  -1.2433642504842881e-04 2.0362646500697329e-04 0.0000000000000000e+00  6.6932992456872288e-05 2.6641907448484532e-04 0.0000000000000000e+00  -6.9676793008658644e-03 1.7545022066135191e-01 0.0000000000000000e+00  -6.8219400976803728e-03 1.7526069494147853e-01 0.0000000000000000e+00  -6.9218473535037723e-03 1.7542444256413442e-01 0.0000000000000000e+00  1.2803360430449655e-04 6.0480681881598544e-04 0.0000000000000000e+00  -2.6154553616935210e-05 4.1721874250382954e-04 0.0000000000000000e+00  1.0745216943429189e-04 2.8538213951211886e-04 0.0000000000000000e+00  -1.6961569469393139e-04 2.9023983159790254e-04 0.0000000000000000e+00  -7.3256140623314146e-03 1.7543514530314452e-01 0.0000000000000000e+00  -7.0152689449203189e-03 1.7551020408163268e-01 0.0000000000000000e+00  -7.2680484649657566e-06 3.9273712081161282e-04 0.0000000000000000e+00  5.2676454442335124e-05 1.0669161897696719e-04 0.0000000000000000e+00  -7.2348537285592705e-03 1.7533747950638812e-01 0.0000000000000000e+00  3.3602082265894720e-05 3.0358411747343964e-04 0.0000000000000000e+00  -8.5918007678017632e-05 1.0194177711319162e-04 0.0000000000000000e+00  -3.6141518639603746e-04 7.5392968367656238e-04 0.0000000000000000e+00  -4.3104723298848989e-05 3.7149289044390379e-04 0.0000000000000000e+00  -1.8551542792450031e-05 2.0902991357018126e-04 0.0000000000000000e+00  7.1651242186410624e-05 2.0440054292149057e-04 0.0000000000000000e+00  -4.5924154339556837e-05 3.3657290490369287e-04 0.0000000000000000e+00  -4.8821620619487531e-06 3.4530362625085340e-04 0.0000000000000000e+00  -2.4785147640634698e-04 5.4427160460657404e-04 0.0000000000000000e+00  -7.0138682270428068e-03 1.7545015749099588e-01 0.0000000000000000e+00  2.1445408626403762e-04 4.3146384964282277e-04 0.0000000000000000e+00  -8.5425868635386441e-05 2.4865078238234532e-04 0.0000000000000000e+00  9.8875194169697036e-05 4.9159891830999564e-04 0.0000000000000000e+00  -6.8481192328539130e-03 1.7522991226216778e-01 0.0000000000000000e+00  -9.6053999833266889e-05 1.9600232595869694e-04 0.0000000000000000e+00  -7.2602264404908962e-03 1.7551020408163268e-01 0.0000000000000000e+00  1.0061279878034777e-04 1.9594752079308666e-04 0.0000000000000000e+00  -7.3127744152752987e-03 1.7531313177544236e-01 0.0000000000000000e+00  2.2729979812192085e-04 5.9107937418270695e-04 0.0000000000000000e+00  1.3635148914450292e-04 2.5602293645812877e-04 0.0000000000000000e+00  -1.3617785703925542e-04 3.2410541187315737e-04 0.0000000000000000e+00  -7.3014987155594372e-03 1.7551020408163268e-01 0.0000000000000000e+00  6.5703617784142098e-05 2.1585461539737336e-04 0.0000000000000000e+00  -6.5471124703526338e-05 1.0214459158221941e-04 0.0000000000000000e+00  4.5313177866438400e-05 2.0741316050176275e-04 0.0000000000000000e+00  -7.2725647573518510e-03 1.7544102911933737e-01 0.0000000000000000e+00  -5.7712760827830763e-05 2.3428868332646884e-04 0.0000000000000000e+00  -2.4689560910777877e-04 4.6546217348902662e-04 0.0000000000000000e+00  1.0311742934003683e-04 2.5168109139548966e-04 0.0000000000000000e+00  -6.9539876184093160e-03 1.7533211807712581e-01 0.0000000000000000e+00  -1.3594107377632600e-04 2.7146863533452037e-04 0.0000000000000000e+00  -7.3030102966634607e-03 1.7543441677221533e-01 0.0000000000000000e+00  -1.3846176189231544e-05 2.7720079194430735e-04 0.0000000000000000e+00  -3.1161329391972116e-06 1.2437534582904595e-05 0.0000000000000000e+00  2.9319629610849034e-05 6.2308182518360940e-05 0.0000000000000000e+00  -6.9462508943646207e-03 1.7538682393092186e-01 0.0000000000000000e+00  -2.9619645949213035e-05 3.9074839578767476e-05 0.0000000000000000e+00  1.1319434321980510e-05 3.5256734457255033e-05 0.0000000000000000e+00  -1.1764533536101994e-04 1.7267699546009857e-04 0.0000000000000000e+00  4.3124777429327514e-05 6.9384952280836758e-05 0.0000000000000000e+00  8.9970521372939119e-05 1.1286308226141223e-04 0.0000000000000000e+00  -6.1405105574369043e-05 6.8914471258015017e-05 0.0000000000000000e+00  -7.1286614113311216e-03 1.7515782810026231e-01 0.0000000000000000e+00  -3.5754118103711188e-05 7.2043072103106283e-05 0.0000000000000000e+00  -8.2126020953613932e-05 1.6487279882489506e-04 0.0000000000000000e+00  3.6023536769507972e-04 8.1299086772185702e-04 0.0000000000000000e+00  -7.0622663372808476e-03 1.7538500338023935e-01 0.0000000000000000e+00  -7.1574005466200994e-03 1.7532727240490167e-01 0.0000000000000000e+00  -7.1018573297336419e-03 1.7544208002830822e-01 0.0000000000000000e+00  -7.2808145192090924e-03 1.7535232564086958e-01 0.0000000000000000e+00  -5.7599188026529475e-05 4.1606087573438957e-04 0.0000000000000000e+00  4.4661868948752804e-06 2.6254325180827699e-04 0.0000000000000000e+00  -9.2782847456014415e-05 3.6991679081092973e-04 0.0000000000000000e+00  7.1271165862872742e-05 1.8017483155145981e-04 0.0000000000000000e+00  2.9535601816163084e-05 3.3217507024961752e-04 0.0000000000000000e+00  1.6090178200990700e-05 4.6078435695894591e-04 0.0000000000000000e+00  -6.7791039084729998e-03 1.7515979854589755e-01 0.0000000000000000e+00  -1.2451219383037237e-04 1.2158963824473213e-04 0.0000000000000000e+00  -6.9748037851632902e-03 1.7551020408163268e-01 0.0000000000000000e+00  -1.6231673917155824e-04 2.0809474733520024e-04 0.0000000000000000e+00  -8.4414220061726568e-05 3.3114538290868661e-04 0.0000000000000000e+00  -7.3704277676398325e-03 1.7525535200053946e-01 0.0000000000000000e+00  -7.0661472128390520e-03 1.7551020408163268e-01 0.0000000000000000e+00  -1.3471315187860286e-04 5.4618406290943093e-04 0.0000000000000000e+00  2.3994485703854981e-05 6.0248106637019761e-05 0.0000000000000000e+00  9.1715033145416315e-05 1.0701164939380724e-04 0.0000000000000000e+00  1.2900707936460632e-04 1.8339803566772212e-04 0.0000000000000000e+00  -7.2057360201325665e-03 1.7551020408163268e-01 0.0000000000000000e+00  -7.1374825909925367e-03 1.7551020408163268e-01 0.0000000000000000e+00  6.4134191369849783e-05 2.9253948608281226e-04 0.0000000000000000e+00  -6.9311503468455641e-03 1.7551020408163265e-01 0.0000000000000000e+00  -6.8936733473402602e-03 1.7540549445712661e-01 0.0000000000000000e+00  -5.6001874544742256e-05 6.4980662988131549e-05 0.0000000000000000e+00  -6.9454079914550507e-03 1.7544126736336987e-01 0.0000000000000000e+00  2.5451643486884926e-05 9.3968881850146270e-05 0.0000000000000000e+00  -7.9605711096588386e-05 1.6925721730463728e-04 0.0000000000000000e+00  -6.8903556100805927e-03 1.7534417819438589e-01 0.0000000000000000e+00  1.0935388175928227e-04 1.3387763154929733e-04 0.0000000000000000e+00  -2.6793628793406980e-05 3.4306519163684807e-05 0.0000000000000000e+00  -1.0798655499518010e-04 2.9428061948726905e-04 0.0000000000000000e+00  4.5636455385338896e-05 1.1510708164966513e-04 0.0000000000000000e+00  -5.1648730480490592e-06 3.7393224372456893e-05 0.0000000000000000e+00  -1.4684327124718643e-04 3.2569720085220705e-04 0.0000000000000000e+00  -7.1796562596751160e-03 1.7542880196530261e-01 0.0000000000000000e+00  -5.4076364225082010e-06 1.4993528401162424e-04 0.0000000000000000e+00  -6.9966984527645056e-03 1.7539509743491194e-01 0.0000000000000000e+00  -3.8167369999376571e-04 7.4630759599013385e-04 0.0000000000000000e+00  -3.1717385790852716e-05 9.7720825766007879e-05 0.0000000000000000e+00  -7.3175285850586164e-03 1.7537307589896900e-01 0.0000000000000000e+00  -6.9957167735866920e-03 1.7546237494855751e-01 0.0000000000000000e+00  -4.5729713575175316e-05 6.2267579919544710e-05 0.0000000000000000e+00  -4.7359424749222862e-04 9.0344585694873572e-04 0.0000000000000000e+00  -7.0265953617195884e-03 1.7530751541759915e-01 0.0000000000000000e+00  1.9802929159328052e-05 3.2072726245133598e-05 0.0000000000000000e+00  -6.6731480680673374e-05 1.3031976536245055e-04 0.0000000000000000e+00  3.2787885465349327e-05 4.4933270122328987e-04 0.0000000000000000e+00  6.7729487167629765e-05 3.8353523215155016e-04 0.0000000000000000e+00  -5.4821247142631944e-05 1.1958049265338973e-04 0.0000000000000000e+00  2.4812617356965316e-04 4.7093787894274416e-04 0.0000000000000000e+00  -7.2210078623996593e-03 1.7529742195174733e-01 0.0000000000000000e+00  -6.4727050502269039e-05 1.8498435313607273e-04 0.0000000000000000e+00  3.6874468400640214e-05 6.8259225746229881e-05 0.0000000000000000e+00  3.3912308983005668e-05 1.8382235009916005e-04 0.0000000000000000e+00  8.2887167870150744e-05 2.6151340747291598e-04 0.0000000000000000e+00  -7.0366613492490399e-03 1.7544490384396921e-01 0.0000000000000000e+00  5.5199212585972600e-05 1.9626410486357277e-04 0.0000000000000000e+00  5.3427516436498839e-05 2.8117924136237778e-04 0.0000000000000000e+00  -7.0381848549575741e-05 3.1626371168367592e-04 0.0000000000000000e+00  -4.4122111627564819e-05 2.1173234788934931e-04 0.0000000000000000e+00  -7.3021142016301702e-03 1.7511922004970434e-01 0.0000000000000000e+00  4.0470219602816105e-04 8.0745057134200130e-04 0.0000000000000000e+00  4.0345009492771659e-04 9.4310731838563697e-04 0.0000000000000000e+00  -1.1016637310997049e-04 1.4138702080115635e-04 0.0000000000000000e+00  -7.2589325223788772e-03 1.7526119248210739e-01 0.0000000000000000e+00  7.0991076430577865e-06 1.1587964015258148e-04 0.0000000000000000e+00  9.8137891006948181e-05 1.6059710300023308e-04 0.0000000000000000e+00  -1.2448389542870384e-05 4.6019686726666222e-05 0.0000000000000000e+00  -7.2585439577752282e-03 1.7534134343433150e-01 0.0000000000000000e+00  -9.6888835960747468e-05 9.5862578976545448e-04 0.0000000000000000e+00  2.3858563482008518e-04 4.1364133599793067e-04 0.0000000000000000e+00  -7.2499445535960331e-03 1.7545988698942852e-01 0.0000000000000000e+00  7.4137290667789397e-05 1.3719703053524722e-04 0.0000000000000000e+00  -6.7757046419069837e-03 1.7484566897101583e-01 0.0000000000000000e+00  2.3104106198834794e-04 5.2245784083434263e-04 0.0000000000000000e+00  -7