<?xml version="1.0"?>
<VTKFile type="UnstructuredGrid"  version="0.1"  >
<UnstructuredGrid>
<Piece  NumberOfPoints="5173" NumberOfCells="9966">
<Points>
<DataArray  type="Float64"  NumberOfComponents="3"  format="ascii">-0.5 0.5 0  -0.5 -0.5 0  0.5 -0.5 0  0.5 0.5 0  0.1998669600420274 0.02125869712947308 0  0.201 0 0  0.1998669600420274 -0.02125869712947312 0  0.1964806779635733 -0.04227652472592507 0  0.1908795216936763 -0.06281534240438978 0  0.1831269545709826 -0.08264243715367564 0  0.1733108162787611 -0.1015331600677681 0  0.1615423275861927 -0.1192734717077003 0  0.1479548301726135 -0.1356623672539232 0  0.1327022758130076 -0.1505141539712278 0  0.1159574820428814 -0.1636605551816338 0  0.09791017406652992 -0.1749526169063923 0  0.07876483509466403 -0.1842623955740826 0  0.05873838946792427 -0.1914844076724011 0  0.03805774481742277 -0.1965368249185042 0  0.01695722111061653 -0.1993624014061501 0  -0.004324104287555032 -0.1999291222246905 0  -0.02554510545674447 -0.1982305662008014 0  -0.04646533997422303 -0.194285978652942 0  -0.06684777322360611 -0.1881400533342067 0  -0.08646146409177112 -0.1798624260342438 0  -0.1050841816239485 -0.1695468855779342 0  -0.1225049229892384 -0.1573103111605285 0  -0.138526304226997 -0.143291348059663 0  -0.1529667966859812 -0.127648836728964 0  -0.165662783816503 -0.1105600130722386 0  -0.1764704150113143 -0.0922185002898652 0  -0.1852672354904677 -0.07283211505056446 0  -0.1919535737629032 -0.05262051284550421 0  -0.1964536709442689 -0.03181269920381437 0  -0.1987165391353524 -0.0106444349684357 0  -0.1987165391353524 0.01064443496843575 0  -0.1964536709442689 0.03181269920381442 0  -0.1919535737629032 0.05262051284550433 0  -0.1852672354904677 0.07283211505056443 0  -0.1764704150113143 0.09221850028986515 0  -0.165662783816503 0.1105600130722387 0  -0.1529667966859812 0.1276488367289641 0  -0.1385263042269969 0.1432913480596631 0  -0.1225049229892383 0.1573103111605285 0  -0.1050841816239485 0.1695468855779342 0  -0.08646146409177108 0.1798624260342438 0  -0.06684777322360606 0.1881400533342067 0  -0.04646533997422297 0.194285978652942 0  -0.02554510545674437 0.1982305662008015 0  -0.004324104287554939 0.1999291222246905 0  0.01695722111061662 0.19936240140615 0  0.03805774481742286 0.1965368249185042 0  0.05873838946792424 0.1914844076724011 0  0.07876483509466414 0.1842623955740826 0  0.09791017406653006 0.1749526169063922 0  0.1159574820428814 0.1636605551816338 0  0.1327022758130078 0.1505141539712277 0  0.1479548301726135 0.1356623672539232 0  0.1615423275861927 0.1192734717077003 0  0.1733108162787612 0.101533160067768 0  0.1831269545709827 0.08264243715367564 0  0.1908795216936763 0.06281534240438975 0  0.1964806779635734 0.04227652472592486 0  0 -0.5 0  0 0.5 0  -0.5 0 0  0.5 0 0  0.25 -0.5 0  0.25 0.5 0  0.5 0.25 0  0.5 -0.25 0  -0.25 0.5 0  -0.25 -0.5 0  -0.5 -0.25 0  -0.5 0.25 0  0.2918258229480683 0.2918258229480682 0  0.2865867850624828 -0.2932931940421196 0  -0.2962949893701896 0.274449924397287 0  -0.2913160373738303 -0.2913160373738304 0  -0.125 0.3636995408959175 0  0.3637738468862107 -0.1261303957107176 0  0.125 0.3665964626830409 0  0.3640958654762797 0.1232161970438493 0  -0.3624000654276585 -0.1218337159209422 0  -0.125 -0.3668200952157802 0  0.125 -0.3712838880907947 0  -0.3600991828528437 0.1089843577122111 0  -0.5 0.375 0  0.5 -0.375 0  -0.375 -0.5 0  0.5 0.375 0  -0.375 0.5 0  0.375 -0.5 0  -0.5 -0.375 0  0.375 0.5 0  0.0006860903712339345 -0.3306266888645853 0  -0.000109901520948898 0.3746323380112415 0  -0.5 0.125 0  -0.125 -0.5 0  -0.5 -0.125 0  0.5 0.125 0  0.5 -0.125 0  0.125 -0.5 0  -0.125 0.5 0  0.125 0.5 0  0.3748576787807123 -0.001471205609738957 0  -0.3738828512115154 0.3738828512115154 0  -0.3827617049088436 -0.006210238480157219 0  -0.2429234745416257 0.3810213699917807 0  0.3769180353829246 -0.3769180353829246 0  -0.3777687524152424 -0.3777687524152424 0  0.3780704009792175 0.3780704009792175 0  -0.1776483227107271 -0.2618630460446135 0  -0.2604485542051718 -0.1787215021996984 0  -0.1798547561877991 0.2599748505350166 0  0.3864703130478905 -0.2380123189195306 0  0.1785319646943122 0.2625417448451246 0  0.261692611046212 0.1791168901036931 0  0.2607171500730768 -0.1799460669666111 0  0.1733970740599892 -0.2651674952354912 0  -0.3880520258539732 -0.2322407641539351 0  -0.2352016482221373 -0.388638232840279 0  0.2734696242623063 0.3964265996649794 0  0.3883795026617865 0.233417864889234 0  0.2738670858792859 -0.3976331321261044 0  -0.2491638954018168 0.1780101911767213 0  -0.3926686215746083 0.2165776265637375 0  0.07109213498061834 0.2869023807262104 0  -0.2934183534017453 0.03147305416145122 0  -0.08119265072200343 -0.2826195781877594 0  0.2836913223256923 -0.07709296110799269 0  -0.0558729689268372 0.2928347535333279 0  0.2830965643121598 0.07693076420704528 0  0.08122371629649494 -0.2825469282280794 0  -0.2767834230915197 -0.08819590430941976 0  0.1875 0.4332982313415205 0  -0.04303186331845871 -0.4151376431551652 0  0.190970733019215 -0.4322714131851434 0  0.06249999999999999 -0.4356419440453974 0  0.4328061849987423 0.06633847947711793 0  0.0664712649494027 0.4332982313415205 0  -0.06249999999999998 0.4373709104419552 0  0.4341377633941729 0.309372588857957 0  -0.4374372828954266 -0.3125 0  -0.3104572497507675 -0.4353019888851174 0  0.4374701104890421 -0.3125 0  -0.3116291712721947 0.4366347031852421 0  -0.4374901042687089 0.3125 0  -0.4363926600558238 0.4363926600558238 0  -0.5 0.0625 0  0.5 -0.0625 0  0.5 -0.4375 0  -0.4375 -0.5 0  0.5 0.4375 0  -0.1875 0.5 0  -0.4323246583268963 -0.07454303397230311 0  0.2154950463309389 -0.3375719358844427 0  0.206977802238796 0.342973363124546 0  0.4322596267199844 -0.1704803839098939 0  -0.1690769129391571 -0.4334100476078901 0  0.5 0.1875 0  -0.5 -0.1875 0  0.2967149326504868 -2.965984816150069e-05 0  -0.2579082457853068 0.1006999711688991 0  -0.4261732609354634 -0.1652001701086123 0  0.4197274728231854 -0.06828306080156128 0  0.4316260558094222 0.15625 0  -0.1765935890523967 0.4225213035878151 0  -0.326101012911042 0.1780020696215199 0  -0.3639018823524438 -0.3051829074366289 0  -0.4219359613016062 0.06132313683084987 0  -0.368871881750981 0.2861301036496543 0  -0.3031928482819811 -0.3630024307590357 0  0.3125 0.5 0  0.3355547846059301 -0.437829382399898 0  0.3620936304880762 0.3078025934392096 0  -0.4265460575686851 0.1475964618934338 0  0.4375 -0.5 0  -0.5 -0.4375 0  0.4375 0.5 0  0.3587983613906559 -0.3058906763528768 0  -0.1889171018677358 -0.3331988582480375 0  0.3319769361362775 -0.1908238194547704 0  0.3337713745363715 0.4328433800405805 0  -0.3319644446835826 -0.1870886352472088 0  0.3329253892881625 0.1878611701133833 0  0.4281511341447153 -0.4281511341447153 0  -0.232840147849867 0.3093215053326949 0  -0.40625 -0.4395608850352885 0  0.428794887401249 0.428794887401249 0  -0.3380841551254475 -0.05794700007688498 0  0.008054260670409629 -0.2648994211243904 0  0.1899220001124564 -0.1947534447033338 0  -0.3080416507322476 0.3708200057439822 0  -0.06307278823153059 -0.3455430469652901 0  0.06447087227249242 -0.3459780260685607 0  0.1914876772934198 0.1922953616824615 0  0.1267822167193652 -0.4357424153550361 0  -0.1100367963981227 0.2468729543145758 0  -0.1040301628609493 -0.4382371732506554 0  0.008496887133013969 0.3088587185741126 0  -0.1939711685411953 -0.1799889819170536 0  0.1169089524024441 0.2383640108781663 0  -0.5 0.1875 0  -0.06301873836730842 0.3744639870876723 0  0.0612272731888486 0.3516549422231338 0  0.0001842875295821901 0.4373159592812666 0  0.315570863666392 0.3499038328432952 0  0.43737589643705 0.003767781375474147 0  0.3480437072584214 -0.06190943679164183 0  0.3704548124556613 0.06095691071954262 0  0.3139725644615085 -0.3495769689516506 0  0.5 -0.1875 0  -0.5 -0.0625 0  -0.5 0.3125 0  -0.1875 -0.5 0  -0.3125 0.5 0  -0.3125 -0.5 0  -0.5 -0.3125 0  0.5 0.3125 0  -0.0625 0.5 0  0.5 0.0625 0  0.0625 -0.5 0  0.1875 -0.5 0  0.3125 -0.5 0  0.1875 0.5 0  0.0625 0.5 0  0.5 -0.3125 0  -0.4375 0.5 0  -0.5 0.4375 0  -0.0625 -0.5 0  -0.3740130545720807 0.4376162026208867 0  0.2356432480937504 -0.1203529309141897 0  0.2354253261260549 0.120280228505195 0  -0.4358389466402443 0.374436564627095 0  -0.1837098359759774 0.1929485386776155 0  -0.1210077767998366 -0.2331474219302516 0  -0.4388230181844467 -0.3736756227341544 0  0.2385916116983025 -0.2446215854929363 0  0.01618154697154811 -0.392205807603664 0  0.3033224724982568 0.1345019962362828 0  0.1269856324747013 0.4273682536406486 0  -0.2618767198442009 -0.02513308225372456 0  -0.1869024341550137 0.3523407916866587 0  0.4460792014197047 0.2150519456240759 0  -0.228067921023645 -0.1261420173261541 0  0.4375111104956734 0.3693541778847931 0  -0.2344434115929863 0.441225502334267 0  -0.1349409233725989 -0.3081519167298867 0  0.2361921270004774 0.236858231392783 0  -0.1134625589296566 0.3058057213872041 0  0.1364902237265291 -0.2193600350069504 0  -0.231009496195906 -0.2899916451544192 0  -0.4420301468408164 -0.0153626464053197 0  -0.3638407636123014 0.04989392276612995 0  -0.2281634567999949 -0.2293698735254731 0  -0.2404608239114909 0.2480193450766527 0  0.1548586079872366 0.3161601351946364 0  -0.2905808065687782 -0.2309892133488608 0  0.1583090638615736 -0.3223807786382032 0  0.3037640590628244 -0.1367963242859415 0  0.441474411355182 -0.3710236808063671 0  -0.1184457037417267 0.4214861255011078 0  0.3280783743867655 -0.2503846686276005 0  0.4421147536667354 -0.254616967737483 0  -0.4419160956032748 -0.2544205585064326 0  -0.3074463395544132 -0.1359279022829991 0  0.3366964226424555 0.256991018383815 0  -0.4508616135570574 0.21875 0  -0.3395120610056381 0.2372377549435862 0  -0.2261617732606898 -0.4465036260914809 0  0.2350726063974556 0.2936290504086719 0  0.007756726855498133 0.253726523067807 0  0.2816091581197124 -0.4531847002458751 0  0.002693579241951911 -0.4452927028974097 0  0.2614770372227774 0.3432624384800261 0  0.2905620892368345 0.2263682042801985 0  -0.2876366597373845 0.2178464403043631 0  0.2807413030307
[...]
<PointData  Vectors="f_44"> 
<DataArray  type="Float64"  Name="f_44"  NumberOfComponents="3" format="ascii">2.8966931550521380e-02 6.9387755102040830e-02 0.0000000000000000e+00  -1.1671714856091019e-02 2.3561051075456047e-02 0.0000000000000000e+00  1.1370490341938468e-02 2.3139885172977166e-02 0.0000000000000000e+00  -2.8878827962734655e-02 6.9387755102040816e-02 0.0000000000000000e+00  0.0000000000000000e+00 0.0000000000000000e+00 0.0000000000000000e+00  0.0000000000000000e+00 0.0000000000000000e+00 0.0000000000000000e+00  0.0000000000000000e+00 0.0000000000000000e+00 0.0000000000000000e+00  0.0000000000000000e+00 0.0000000000000000e+00 0.0000000000000000e+00  0.0000000000000000e+00 0.0000000000000000e+00 0.0000000000000000e+00  0.0000000000000000e+00 0.0000000000000000e+00 0.0000000000000000e+00  0.0000000000000000e+00 0.0000000000000000e+00 0.0000000000000000e+00  0.0000000000000000e+00 0.0000000000000000e+00 0.0000000000000000e+00  0.0000000000000000e+00 0.0000000000000000e+00 0.0000000000000000e+00  0.0000000000000000e+00 0.0000000000000000e+00 0.0000000000000000e+00  0.0000000000000000e+00 0.0000000000000000e+00 0.0000000000000000e+00  0.0000000000000000e+00 0.0000000000000000e+00 0.0000000000000000e+00  0.0000000000000000e+00 0.0000000000000000e+00 0.0000000000000000e+00  0.0000000000000000e+00 0.0000000000000000e+00 0.0000000000000000e+00  0.0000000000000000e+00 0.0000000000000000e+00 0.0000000000000000e+00  0.0000000000000000e+00 0.0000000000000000e+00 0.0000000000000000e+00  0.0000000000000000e+00 0.0000000000000000e+00 0.0000000000000000e+00  0.0000000000000000e+00 0.0000000000000000e+00 0.0000000000000000e+00  0.0000000000000000e+00 0.0000000000000000e+00 0.0000000000000000e+00  0.0000000000000000e+00 0.0000000000000000e+00 0.0000000000000000e+00  0.0000000000000000e+00 0.0000000000000000e+00 0.0000000000000000e+00  0.0000000000000000e+00 0.0000000000000000e+00 0.0000000000000000e+00  0.0000000000000000e+00 0.0000000000000000e+00 0.0000000000000000e+00  0.0000000000000000e+00 0.0000000000000000e+00 0.0000000000000000e+00  0.0000000000000000e+00 0.0000000000000000e+00 0.0000000000000000e+00  0.0000000000000000e+00 0.0000000000000000e+00 0.0000000000000000e+00  0.0000000000000000e+00 0.0000000000000000e+00 0.0000000000000000e+00  0.0000000000000000e+00 0.0000000000000000e+00 0.0000000000000000e+00  0.0000000000000000e+00 0.0000000000000000e+00 0.0000000000000000e+00  0.0000000000000000e+00 0.0000000000000000e+00 0.0000000000000000e+00  0.0000000000000000e+00 0.0000000000000000e+00 0.0000000000000000e+00  0.0000000000000000e+00 0.0000000000000000e+00 0.0000000000000000e+00  0.0000000000000000e+00 0.0000000000000000e+00 0.0000000000000000e+00  0.0000000000000000e+00 0.0000000000000000e+00 0.0000000000000000e+00  0.0000000000000000e+00 0.0000000000000000e+00 0.0000000000000000e+00  0.0000000000000000e+00 0.0000000000000000e+00 0.0000000000000000e+00  0.0000000000000000e+00 0.0000000000000000e+00 0.0000000000000000e+00  0.0000000000000000e+00 0.0000000000000000e+00 0.0000000000000000e+00  0.0000000000000000e+00 0.0000000000000000e+00 0.0000000000000000e+00  0.0000000000000000e+00 0.0000000000000000e+00 0.0000000000000000e+00  0.0000000000000000e+00 0.0000000000000000e+00 0.0000000000000000e+00  0.0000000000000000e+00 0.0000000000000000e+00 0.0000000000000000e+00  0.0000000000000000e+00 0.0000000000000000e+00 0.0000000000000000e+00  0.0000000000000000e+00 0.0000000000000000e+00 0.0000000000000000e+00  0.0000000000000000e+00 0.0000000000000000e+00 0.0000000000000000e+00  0.0000000000000000e+00 0.0000000000000000e+00 0.0000000000000000e+00  0.0000000000000000e+00 0.0000000000000000e+00 0.0000000000000000e+00  0.0000000000000000e+00 0.0000000000000000e+00 0.0000000000000000e+00  0.0000000000000000e+00 0.0000000000000000e+00 0.0000000000000000e+00  0.0000000000000000e+00 0.0000000000000000e+00 0.0000000000000000e+00  0.0000000000000000e+00 0.0000000000000000e+00 0.0000000000000000e+00  0.0000000000000000e+00 0.0000000000000000e+00 0.0000000000000000e+00  0.0000000000000000e+00 0.0000000000000000e+00 0.0000000000000000e+00  0.0000000000000000e+00 0.0000000000000000e+00 0.0000000000000000e+00  0.0000000000000000e+00 0.0000000000000000e+00 0.0000000000000000e+00  0.0000000000000000e+00 0.0000000000000000e+00 0.0000000000000000e+00  0.0000000000000000e+00 0.0000000000000000e+00 0.0000000000000000e+00  0.0000000000000000e+00 0.0000000000000000e+00 0.0000000000000000e+00  0.0000000000000000e+00 0.0000000000000000e+00 0.0000000000000000e+00  -1.6238471225957707e-04 4.1891840244233057e-03 0.0000000000000000e+00  1.2609682096862999e-04 6.9387755102040816e-02 0.0000000000000000e+00  5.8002539808682599e-03 3.6642015304085056e-02 0.0000000000000000e+00  -5.7607845790059202e-03 3.6309355780830957e-02 0.0000000000000000e+00  9.7534578474614449e-03 1.1545754635986146e-02 0.0000000000000000e+00  -2.0255187875662620e-02 6.9387755102040816e-02 0.0000000000000000e+00  -2.2045314102094274e-02 5.2752829829885356e-02 0.0000000000000000e+00  3.7688010814928576e-03 2.4738148131103969e-02 0.0000000000000000e+00  2.0418107999866660e-02 6.9387755102040830e-02 0.0000000000000000e+00  -1.0071390139431192e-02 1.1773338652834222e-02 0.0000000000000000e+00  -3.8768951758373078e-03 2.5153085673727725e-02 0.0000000000000000e+00  2.2106892731737691e-02 5.2944631269525366e-02 0.0000000000000000e+00  -1.8752826086678859e-02 4.3462219301882314e-02 0.0000000000000000e+00  4.8349463429222103e-03 1.2834711445675826e-02 0.0000000000000000e+00  1.8291670385622120e-02 4.2048701019551118e-02 0.0000000000000000e+00  -4.9854390153348483e-03 1.3424486603205952e-02 0.0000000000000000e+00  1.1393880676662910e-02 4.2845280044306412e-02 0.0000000000000000e+00  1.8628940677636032e-03 2.0782423435324892e-02 0.0000000000000000e+00  -1.1212602548105906e-02 4.3307737277268304e-02 0.0000000000000000e+00  -1.0939773456635903e-02 3.4047312490880034e-02 0.0000000000000000e+00  -1.7699422118596943e-03 2.1115802826009104e-02 0.0000000000000000e+00  -3.2817998284206244e-03 4.8508821690858833e-03 0.0000000000000000e+00  3.1310746858290170e-03 4.7936669208414632e-03 0.0000000000000000e+00  9.9301722560637198e-03 3.2886507294037130e-02 0.0000000000000000e+00  2.7280707306593668e-02 6.0980256021477712e-02 0.0000000000000000e+00  6.9580916837143642e-03 2.3185065063094829e-02 0.0000000000000000e+00  -1.1627771465650548e-02 1.8211871903038478e-02 0.0000000000000000e+00  -2.7208611829354218e-02 6.0879939892586138e-02 0.0000000000000000e+00  2.5737400886379710e-02 6.9387755102040802e-02 0.0000000000000000e+00  1.1320813597546881e-02 1.7888245987664326e-02 0.0000000000000000e+00  -7.1611067731363887e-03 2.3606108007642838e-02 0.0000000000000000e+00  -2.5626776190913084e-02 6.9387755102040802e-02 0.0000000000000000e+00  -6.9395195022513664e-05 1.9845717276649570e-03 0.0000000000000000e+00  1.2843213074330840e-04 4.1614848451799608e-02 0.0000000000000000e+00  1.4089092258387175e-02 4.4881354521151329e-02 0.0000000000000000e+00  -5.9683028174655857e-03 6.3245438792696659e-03 0.0000000000000000e+00  -1.8608590742310484e-04 2.9553813356236001e-02 0.0000000000000000e+00  -1.4033207467764644e-02 4.4615992514571684e-02 0.0000000000000000e+00  1.6639095268568290e-04 2.9173899938081185e-02 0.0000000000000000e+00  5.6555678512363698e-03 6.2109017676323340e-03 0.0000000000000000e+00  1.1792481028287704e-02 6.9387755102040802e-02 0.0000000000000000e+00  -1.1577330642689955e-02 6.9387755102040830e-02 0.0000000000000000e+00  -3.2807188845179382e-03 2.6935794247666803e-02 0.0000000000000000e+00  2.4166260586485109e-02 5.6860531577388421e-02 0.0000000000000000e+00  3.2380218514856899e-03 2.7734562534925410e-02 0.0000000000000000e+00  1.9179829164561166e-02 5.2021138750154773e-02 0.0000000000000000e+00  6.9656062816073052e-03 1.8011889985295751e-02 0.0000000000000000e+00  -7.1963896458528027e-03 1.8380594135866717e-02 0.0000000000000000e+00  -2.4286599677340228e-02 5.7315272401981650e-02 0.0000000000000000e+00  -3.1564498526529816e-03 5.8082133838169379e-03 0.0000000000000000e+00  -3.2170527130085278e-03 1.1014708714754814e-02 0.0000000000000000e+00  1.2699128304057063e-02 2.8617227455485134e-02 0.0000000000000000e+00  4.1662001861138935e-03 1.9890326031456181e-02 0.0000000000000000e+00  -1.2589457413047053e-02 2.8646662837198845e-02 0.0000000000000000e+00  -1.1617913688592914e-02 2.7656218613825483e-02 0.0000000000000000e+00  3.1699896108870638e-03 1.0757036004961794e-02 0.0000000000000000e+00  2.9958954672956993e-03 5.4594402285394143e-03 0.0000000000000000e+00  -4.1394426034092394e-03 2.0421897697743684e-02 0.0000000000000000e+00  -5.9816103962021519e-03 1.0289954721173576e-02 0.0000000000000000e+00  -2.0752391787457185e-02 5.5392531982792786e-02 0.0000000000000000e+00  -1.8685581295267439e-02 4.4842175021086200e-02 0.0000000000000000e+00  6.5704449765653329e-03 1.2275554336704313e-02 0.0000000000000000e+00  1.1135647624213115e-02 2.6154926397536849e-02 0.0000000000000000e+00  1.7885937861589589e-02 4.3977488256607987e-02 0.0000000000000000e+00  -5.9406031906523602e-03 2.3320861054725771e-02 0.0000000000000000e+00  3.1206810925142638e-03 1.9599006656145425e-02 0.0000000000000000e+00  -1.5194350894849394e-03 2.2248268960380312e-03 0.0000000000000000e+00  1.2540660234594209e-03 1.3773366509324635e-02 0.0000000000000000e+00  4.9633003216447164e-03 2.3934071586041071e-02 0.0000000000000000e+00  -5.3479022249994746e-03 2.0855697086830282e-02 0.0000000000000000e+00  1.3910341000288250e-03 2.1528272656649414e-03 0.0000000000000000e+00  -1.5601480233679145e-03 1.3070411769415525e-02 0.0000000000000000e+00  -1.6227684290029312e-02 5.7999117272913472e-02 0.0000000000000000e+00  -1.4920273427076363e-03 3.3948080291235361e-03 0.0000000000000000e+00  5.8309161863308286e-03 8.1374787751855027e-03 0.0000000000000000e+00  2.0434791399903778e-03 3.8796296027938555e-03 0.0000000000000000e+00  -8.6324595866636208e-03 3.5935502111186422e-02 0.0000000000000000e+00  -6.3226193356284181e-03 5.5246144710080568e-02 0.0000000000000000e+00  6.1931210170687217e-03 5.6086783380274008e-02 0.0000000000000000e+00  -2.3512563005159581e-02 5.3657842052871364e-02 0.0000000000000000e+00  -5.6419287038188218e-03 2.1832243280254838e-02 0.0000000000000000e+00  -8.3835563990519411e-03 1.4710989603697457e-02 0.0000000000000000e+00  5.4874179137053697e-03 2.1459062200494934e-02 0.0000000000000000e+00  2.3073417091220686e-02 6.1738374769292760e-02 0.0000000000000000e+00  2.3806083729209906e-02 5.4210469674808651e-02 0.0000000000000000e+00  2.7095033155182004e-02 6.4119099203388694e-02 0.0000000000000000e+00  9.7726271328478203e-03 4.0733809851162602e-02 0.0000000000000000e+00  -2.4359133706486715e-03 3.2473189824580605e-02 0.0000000000000000e+00  8.9964625656571689e-03 2.3110904992403362e-02 0.0000000000000000e+00  -1.1699145683324343e-02 2.1051051557299274e-02 0.0000000000000000e+00  -2.8463996135502923e-02 6.5086489752603324e-02 0.0000000000000000e+00  1.6568643599997275e-02 6.9387755102040816e-02 0.0000000000000000e+00  8.3152041528411480e-04 2.8307889885487266e-02 0.0000000000000000e+00  4.5594788318956319e-03 8.6363658344125443e-03 0.0000000000000000e+00  -1.6441850066009924e-02 4.4110121913253288e-02 0.0000000000000000e+00  2.3858728860636216e-03 2.4226790306930229e-02 0.0000000000000000e+00  -5.5538157110040526e-03 7.3240809055725789e-03 0.0000000000000000e+00  -1.8277658221341617e-02 4.8722727754369706e-02 0.0000000000000000e+00  -2.2144094117700929e-03 2.6971232753489980e-02 0.0000000000000000e+00  -1.6183910705220024e-03 1.7986539511077048e-02 0.0000000000000000e+00  5.9865058712317296e-03 1.9270058099786408e-02 0.0000000000000000e+00  -2.3428370703588342e-03 2.4399265467956736e-02 0.0000000000000000e+00  -8.8848386038884136e-04 2.7370455193423855e-02 0.0000000000000000e+00  -1.4784289710970887e-02 4.1983043420379562e-02 0.0000000000000000e+00  1.5605388238280078e-02 5.5886205988966771e-02 0.0000000000000000e+00  1.3738836509777539e-02 3.5146312066578415e-02 0.0000000000000000e+00  -5.5384808406176772e-03 1.8022622010384862e-02 0.0000000000000000e+00  8.1347565419540527e-03 3.5069698738031355e-02 0.0000000000000000e+00  2.0967251567584909e-02 4.8349664379644976e-02 0.0000000000000000e+00  -6.3496049325985826e-03 1.4164378313697762e-02 0.0000000000000000e+00  -2.3289258462486275e-02 6.9387755102040816e-02 0.0000000000000000e+00  8.4842062014974275e-03 1.5787398184842358e-02 0.0000000000000000e+00  -2.1595577207234724e-02 4.9802928544362135e-02 0.0000000000000000e+00  1.4151834391045056e-02 4.1249554917164949e-02 0.0000000000000000e+00  1.1396071579269605e-02 2.0675691326342005e-02 0.0000000000000000e+00  -9.2508475491630861e-03 2.3535365610888384e-02 0.0000000000000000e+00  -2.7436407179751866e-02 6.9387755102040816e-02 0.0000000000000000e+00  5.3931721026682792e-03 1.7390392802712592e-02 0.0000000000000000e+00  -4.2125387903908422e-03 7.3386433041080015e-03 0.0000000000000000e+00  3.4824691095667621e-03 1.6786448930185993e-02 0.0000000000000000e+00  -2.3766940080337615e-02 6.1737462265234605e-02 0.0000000000000000e+00  -3.4743840079221075e-03 1.7152666144200628e-02 0.0000000000000000e+00  -1.4496329590891232e-02 3.6433762537782750e-02 0.0000000000000000e+00  8.6369589167843083e-03 2.0315229191294581e-02 0.0000000000000000e+00  1.7087911336875563e-02 4.1209138415753847e-02 0.0000000000000000e+00  -9.2333815781433220e-03 1.9673527407269062e-02 0.0000000000000000e+00  -2.6697871502331199e-02 6.3286758558368017e-02 0.0000000000000000e+00  4.1101697063946249e-05 2.0934646081198556e-02 0.0000000000000000e+00  6.8890014962978447e-05 9.5161155840981231e-04 0.0000000000000000e+00  2.4206611174855596e-03 5.1104989530478956e-03 0.0000000000000000e+00  2.1866150231411387e-02 5.3797828741746004e-02 0.0000000000000000e+00  -1.5979197452207329e-03 2.8229218547215391e-03 0.0000000000000000e+00  1.4491008632806046e-03 2.7955754400384382e-03 0.0000000000000000e+00  -9.2128379825185142e-03 1.9148642509625283e-02 0.0000000000000000e+00  4.1289304975710324e-03 5.5498338999434849e-03 0.0000000000000000e+00  7.7662951633370126e-03 1.8129840917508872e-02 0.0000000000000000e+00  -3.7234398853187257e-03 4.9671475726803908e-03 0.0000000000000000e+00  -6.6714133676175574e-04 2.6325509327575065e-02 0.0000000000000000e+00  -2.3603849662744087e-03 5.2658260868809455e-03 0.0000000000000000e+00  -7.6627460634016067e-03 1.6893175948870017e-02 0.0000000000000000e+00  1.8335579770219834e-02 4.8951098040107451e-02 0.0000000000000000e+00  6.1438898307909382e-03 4.2539847681424971e-02 0.0000000000000000e+00  -5.6718666987634163e-03 3.7385508414891459e-02 0.0000000000000000e+00  1.0765095280182338e-04 5.5644025772078207e-02 0.0000000000000000e+00  -2.1512243039540430e-02 5.1629344848942632e-02 0.0000000000000000e+00  -4.8054225009200617e-03 3.2436765223141817e-02 0.0000000000000000e+00  -2.3597308714240221e-05 2.1477817562348695e-02 0.0000000000000000e+00  -6.8872954259470986e-03 3.0246217979057650e-02 0.0000000000000000e+00  5.9792373679508079e-03 1.4532130211247574e-02 0.0000000000000000e+00  2.1633877861021518e-03 2.6566282157095864e-02 0.0000000000000000e+00  2.4543890860434900e-03 3.2835616378082848e-02 0.0000000000000000e+00  2.5132903715636357e-02 5.6923672126284984e-02 0.0000000000000000e+00  -8.3195010712305284e-03 8.7589829412138172e-03 0.0000000000000000e+00  2.3427178225198988e-02 6.9387755102040816e-02 0.0000000000000000e+00  -1.1143862697063292e-02 1.5040244352293000e-02 0.0000000000000000e+00  -5.4320843717132602e-03 2.4071799567676463e-02 0.0000000000000000e+00  -2.5062875329858712e-02 5.6773683982820490e-02 0.0000000000000000e+00  6.2098908524704458e-03 6.9387755102040816e-02 0.0000000000000000e+00  -9.7220835599677140e-03 4.0433731341214176e-02 0.0000000000000000e+00  2.8560154117101898e-03 4.6897787580799559e-03 0.0000000000000000e+00  8.0019984748535434e-03 8.5784227775482554e-03 0.0000000000000000e+00  1.0837519148344623e-02 1.4760704995765031e-02 0.0000000000000000e+00  -1.6372932042654019e-02 6.9387755102040816e-02 0.0000000000000000e+00  -5.9658983290502522e-03 6.9387755102040816e-02 0.0000000000000000e+00  5.2757949773959882e-03 2.3651128998716551e-02 0.0000000000000000e+00  2.7537347712715692e-02 6.9387755102040816e-02 0.0000000000000000e+00  2.8546908682919481e-02 6.5142509457365938e-02 0.0000000000000000e+00  -3.1843328996413061e-03 4.7535403734343127e-03 0.0000000000000000e+00  2.5333098220928239e-02 6.3125540222394208e-02 0.0000000000000000e+00  2.0278102844211538e-03 7.8287318797261481e-03 0.0000000000000000e+00  -6.1526320540712864e-03 1.6985607056758452e-02 0.0000000000000000e+00  2.5854660282691573e-02 5.9047596647397428e-02 0.0000000000000000e+00  8.9717572309357379e-03 1.8358164567829589e-02 0.0000000000000000e+00  -1.6931986825159638e-03 2.4468068467918781e-03 0.0000000000000000e+00  -7.1851280211554991e-03 2.1347765440663923e-02 0.0000000000000000e+00  3.7673366249821242e-03 9.3649989942127428e-03 0.0000000000000000e+00  3.5659429191806032e-04 2.8513033385676578e-03 0.0000000000000000e+00  -9.9786525907138122e-03 2.8485515696574055e-02 0.0000000000000000e+00  -1.1662918341844408e-02 5.5264733467273709e-02 0.0000000000000000e+00  2.8800705875156779e-05 1.2172989991805591e-02 0.0000000000000000e+00  1.5585545580844438e-02 4.4440375449944218e-02 0.0000000000000000e+00  -1.8914993915848739e-02 4.7191243198285548e-02 0.0000000000000000e+00  -2.0700566111383186e-03 7.3420489131925419e-03 0.0000000000000000e+00  -2.5664664736794688e-02 5.8586206731520478e-02 0.0000000000000000e+00  1.9361583413175325e-02 6.0538695965656773e-02 0.0000000000000000e+00  -2.8544942914852491e-03 4.4554737133972420e-03 0.0000000000000000e+00  -1.4137921382265476e-02 3.1503171069163650e-02 0.0000000000000000e+00  9.8025738083812753e-03 3.0564549831199984e-02 0.0000000000000000e+00  1.7054875956189833e-03 2.6300917119351430e-03 0.0000000000000000e+00  -4.3346059715118641e-03 9.4141976210763301e-03 0.0000000000000000e+00  3.8638990346545627e-03 3.2007310506438645e-02 0.0000000000000000e+00  6.0826010191051298e-03 2.9189720370575434e-02 0.0000000000000000e+00  -3.5621713763682034e-03 8.6968132430753249e-03 0.0000000000000000e+00  1.5011480869479813e-02 3.3674813837582189e-02 0.0000000000000000e+00  -1.2752983414007586e-02 3.5675453546139789e-02 0.0000000000000000e+00  -4.1299726447707645e-03 1.3484235629794479e-02 0.0000000000000000e+00  3.3172557509274100e-03 5.5359815999872254e-03 0.0000000000000000e+00  2.5347462686336700e-03 1.5060648802216685e-02 0.0000000000000000e+00  6.9074206344503690e-03 2.1103730872079063e-02 0.0000000000000000e+00  1.1153004752040686e-02 5.3950970056727339e-02 0.0000000000000000e+00  4.4307768153717623e-03 1.5847228756607615e-02 0.0000000000000000e+00  4.2392334287698688e-03 2.2581295707890598e-02 0.0000000000000000e+00  -4.3434454879142711e-03 2.2946842694986092e-02 0.0000000000000000e+00  -2.5323753743848520e-03 1.5742373883732022e-02 0.0000000000000000e+00  -1.8601467286674465e-02 4.3213062109144391e-02 0.0000000000000000e+00  1.9312099508361446e-02 4.7973060101714392e-02 0.0000000000000000e+00  1.7731892733519987e-02 4.1762446057564177e-02 0.0000000000000000e+00  -7.3296701054902241e-03 1.0179615476071963e-02 0.0000000000000000e+00  -1.6553008544817571e-02 3.9018415129575997e-02 0.0000000000000000e+00  -4.8694227901284817e-04 1.2912810214506383e-02 0.0000000000000000e+00  8.3486137432856027e-03 1.2933219357102399e-02 0.0000000000000000e+00  -3.9801235728884845e-05 3.4702927141835624e-03 0.0000000000000000e+00  -1.9167843906996766e-02 4.7718211843809422e-02 0.0000000000000000e+00  -1.5571987935007348e-02 3.6094655508286236e-02 0.0000000000000000e+00  1.5089138667103770e-02 3.5130540909801854e-02 0.0000000000000000e+00  -2.1692960117463401e-02 6.3066991097124797e-02 0.0000000000000000e+00  6.2270459180862620e-03 1.5381562330508048e-02 0.0000000000000000e+00  2.1077169803802937e-02 4.9372582246054314e-02 0.0000000000000000e+00  1.4300038767736003e-02 3.8802011283623941e-02 0.0000000000000000e+00  -4.6499633276279968e-03 1.685667096956918