<?xml version="1.0"?>
<VTKFile type="UnstructuredGrid"  version="0.1"  >
<UnstructuredGrid>
<Piece  NumberOfPoints="5173" NumberOfCells="9966">
<Points>
<DataArray  type="Float64"  NumberOfComponents="3"  format="ascii">-0.5 0.5 0  -0.5 -0.5 0  0.5 -0.5 0  0.5 0.5 0  0.1998669600420274 0.02125869712947308 0  0.201 0 0  0.1998669600420274 -0.02125869712947312 0  0.1964806779635733 -0.04227652472592507 0  0.1908795216936763 -0.06281534240438978 0  0.1831269545709826 -0.08264243715367564 0  0.1733108162787611 -0.1015331600677681 0  0.1615423275861927 -0.1192734717077003 0  0.1479548301726135 -0.1356623672539232 0  0.1327022758130076 -0.1505141539712278 0  0.1159574820428814 -0.1636605551816338 0  0.09791017406652992 -0.1749526169063923 0  0.07876483509466403 -0.1842623955740826 0  0.05873838946792427 -0.1914844076724011 0  0.03805774481742277 -0.1965368249185042 0  0.01695722111061653 -0.1993624014061501 0  -0.004324104287555032 -0.1999291222246905 0  -0.02554510545674447 -0.1982305662008014 0  -0.04646533997422303 -0.194285978652942 0  -0.06684777322360611 -0.1881400533342067 0  -0.08646146409177112 -0.1798624260342438 0  -0.1050841816239485 -0.1695468855779342 0  -0.1225049229892384 -0.1573103111605285 0  -0.138526304226997 -0.143291348059663 0  -0.1529667966859812 -0.127648836728964 0  -0.165662783816503 -0.1105600130722386 0  -0.1764704150113143 -0.0922185002898652 0  -0.1852672354904677 -0.07283211505056446 0  -0.1919535737629032 -0.05262051284550421 0  -0.1964536709442689 -0.03181269920381437 0  -0.1987165391353524 -0.0106444349684357 0  -0.1987165391353524 0.01064443496843575 0  -0.1964536709442689 0.03181269920381442 0  -0.1919535737629032 0.05262051284550433 0  -0.1852672354904677 0.07283211505056443 0  -0.1764704150113143 0.09221850028986515 0  -0.165662783816503 0.1105600130722387 0  -0.1529667966859812 0.1276488367289641 0  -0.1385263042269969 0.1432913480596631 0  -0.1225049229892383 0.1573103111605285 0  -0.1050841816239485 0.1695468855779342 0  -0.08646146409177108 0.1798624260342438 0  -0.06684777322360606 0.1881400533342067 0  -0.04646533997422297 0.194285978652942 0  -0.02554510545674437 0.1982305662008015 0  -0.004324104287554939 0.1999291222246905 0  0.01695722111061662 0.19936240140615 0  0.03805774481742286 0.1965368249185042 0  0.05873838946792424 0.1914844076724011 0  0.07876483509466414 0.1842623955740826 0  0.09791017406653006 0.1749526169063922 0  0.1159574820428814 0.1636605551816338 0  0.1327022758130078 0.1505141539712277 0  0.1479548301726135 0.1356623672539232 0  0.1615423275861927 0.1192734717077003 0  0.1733108162787612 0.101533160067768 0  0.1831269545709827 0.08264243715367564 0  0.1908795216936763 0.06281534240438975 0  0.1964806779635734 0.04227652472592486 0  0 -0.5 0  0 0.5 0  -0.5 0 0  0.5 0 0  0.25 -0.5 0  0.25 0.5 0  0.5 0.25 0  0.5 -0.25 0  -0.25 0.5 0  -0.25 -0.5 0  -0.5 -0.25 0  -0.5 0.25 0  0.2918258229480683 0.2918258229480682 0  0.2865867850624828 -0.2932931940421196 0  -0.2962949893701896 0.274449924397287 0  -0.2913160373738303 -0.2913160373738304 0  -0.125 0.3636995408959175 0  0.3637738468862107 -0.1261303957107176 0  0.125 0.3665964626830409 0  0.3640958654762797 0.1232161970438493 0  -0.3624000654276585 -0.1218337159209422 0  -0.125 -0.3668200952157802 0  0.125 -0.3712838880907947 0  -0.3600991828528437 0.1089843577122111 0  -0.5 0.375 0  0.5 -0.375 0  -0.375 -0.5 0  0.5 0.375 0  -0.375 0.5 0  0.375 -0.5 0  -0.5 -0.375 0  0.375 0.5 0  0.0006860903712339345 -0.3306266888645853 0  -0.000109901520948898 0.3746323380112415 0  -0.5 0.125 0  -0.125 -0.5 0  -0.5 -0.125 0  0.5 0.125 0  0.5 -0.125 0  0.125 -0.5 0  -0.125 0.5 0  0.125 0.5 0  0.3748576787807123 -0.001471205609738957 0  -0.3738828512115154 0.3738828512115154 0  -0.3827617049088436 -0.006210238480157219 0  -0.2429234745416257 0.3810213699917807 0  0.3769180353829246 -0.3769180353829246 0  -0.3777687524152424 -0.3777687524152424 0  0.3780704009792175 0.3780704009792175 0  -0.1776483227107271 -0.2618630460446135 0  -0.2604485542051718 -0.1787215021996984 0  -0.1798547561877991 0.2599748505350166 0  0.3864703130478905 -0.2380123189195306 0  0.1785319646943122 0.2625417448451246 0  0.261692611046212 0.1791168901036931 0  0.2607171500730768 -0.1799460669666111 0  0.1733970740599892 -0.2651674952354912 0  -0.3880520258539732 -0.2322407641539351 0  -0.2352016482221373 -0.388638232840279 0  0.2734696242623063 0.3964265996649794 0  0.3883795026617865 0.233417864889234 0  0.2738670858792859 -0.3976331321261044 0  -0.2491638954018168 0.1780101911767213 0  -0.3926686215746083 0.2165776265637375 0  0.07109213498061834 0.2869023807262104 0  -0.2934183534017453 0.03147305416145122 0  -0.08119265072200343 -0.2826195781877594 0  0.2836913223256923 -0.07709296110799269 0  -0.0558729689268372 0.2928347535333279 0  0.2830965643121598 0.07693076420704528 0  0.08122371629649494 -0.2825469282280794 0  -0.2767834230915197 -0.08819590430941976 0  0.1875 0.4332982313415205 0  -0.04303186331845871 -0.4151376431551652 0  0.190970733019215 -0.4322714131851434 0  0.06249999999999999 -0.4356419440453974 0  0.4328061849987423 0.06633847947711793 0  0.0664712649494027 0.4332982313415205 0  -0.06249999999999998 0.4373709104419552 0  0.4341377633941729 0.309372588857957 0  -0.4374372828954266 -0.3125 0  -0.3104572497507675 -0.4353019888851174 0  0.4374701104890421 -0.3125 0  -0.3116291712721947 0.4366347031852421 0  -0.4374901042687089 0.3125 0  -0.4363926600558238 0.4363926600558238 0  -0.5 0.0625 0  0.5 -0.0625 0  0.5 -0.4375 0  -0.4375 -0.5 0  0.5 0.4375 0  -0.1875 0.5 0  -0.4323246583268963 -0.07454303397230311 0  0.2154950463309389 -0.3375719358844427 0  0.206977802238796 0.342973363124546 0  0.4322596267199844 -0.1704803839098939 0  -0.1690769129391571 -0.4334100476078901 0  0.5 0.1875 0  -0.5 -0.1875 0  0.2967149326504868 -2.965984816150069e-05 0  -0.2579082457853068 0.1006999711688991 0  -0.4261732609354634 -0.1652001701086123 0  0.4197274728231854 -0.06828306080156128 0  0.4316260558094222 0.15625 0  -0.1765935890523967 0.4225213035878151 0  -0.326101012911042 0.1780020696215199 0  -0.3639018823524438 -0.3051829074366289 0  -0.4219359613016062 0.06132313683084987 0  -0.368871881750981 0.2861301036496543 0  -0.3031928482819811 -0.3630024307590357 0  0.3125 0.5 0  0.3355547846059301 -0.437829382399898 0  0.3620936304880762 0.3078025934392096 0  -0.4265460575686851 0.1475964618934338 0  0.4375 -0.5 0  -0.5 -0.4375 0  0.4375 0.5 0  0.3587983613906559 -0.3058906763528768 0  -0.1889171018677358 -0.3331988582480375 0  0.3319769361362775 -0.1908238194547704 0  0.3337713745363715 0.4328433800405805 0  -0.3319644446835826 -0.1870886352472088 0  0.3329253892881625 0.1878611701133833 0  0.4281511341447153 -0.4281511341447153 0  -0.232840147849867 0.3093215053326949 0  -0.40625 -0.4395608850352885 0  0.428794887401249 0.428794887401249 0  -0.3380841551254475 -0.05794700007688498 0  0.008054260670409629 -0.2648994211243904 0  0.1899220001124564 -0.1947534447033338 0  -0.3080416507322476 0.3708200057439822 0  -0.06307278823153059 -0.3455430469652901 0  0.06447087227249242 -0.3459780260685607 0  0.1914876772934198 0.1922953616824615 0  0.1267822167193652 -0.4357424153550361 0  -0.1100367963981227 0.2468729543145758 0  -0.1040301628609493 -0.4382371732506554 0  0.008496887133013969 0.3088587185741126 0  -0.1939711685411953 -0.1799889819170536 0  0.1169089524024441 0.2383640108781663 0  -0.5 0.1875 0  -0.06301873836730842 0.3744639870876723 0  0.0612272731888486 0.3516549422231338 0  0.0001842875295821901 0.4373159592812666 0  0.315570863666392 0.3499038328432952 0  0.43737589643705 0.003767781375474147 0  0.3480437072584214 -0.06190943679164183 0  0.3704548124556613 0.06095691071954262 0  0.3139725644615085 -0.3495769689516506 0  0.5 -0.1875 0  -0.5 -0.0625 0  -0.5 0.3125 0  -0.1875 -0.5 0  -0.3125 0.5 0  -0.3125 -0.5 0  -0.5 -0.3125 0  0.5 0.3125 0  -0.0625 0.5 0  0.5 0.0625 0  0.0625 -0.5 0  0.1875 -0.5 0  0.3125 -0.5 0  0.1875 0.5 0  0.0625 0.5 0  0.5 -0.3125 0  -0.4375 0.5 0  -0.5 0.4375 0  -0.0625 -0.5 0  -0.3740130545720807 0.4376162026208867 0  0.2356432480937504 -0.1203529309141897 0  0.2354253261260549 0.120280228505195 0  -0.4358389466402443 0.374436564627095 0  -0.1837098359759774 0.1929485386776155 0  -0.1210077767998366 -0.2331474219302516 0  -0.4388230181844467 -0.3736756227341544 0  0.2385916116983025 -0.2446215854929363 0  0.01618154697154811 -0.392205807603664 0  0.3033224724982568 0.1345019962362828 0  0.1269856324747013 0.4273682536406486 0  -0.2618767198442009 -0.02513308225372456 0  -0.1869024341550137 0.3523407916866587 0  0.4460792014197047 0.2150519456240759 0  -0.228067921023645 -0.1261420173261541 0  0.4375111104956734 0.3693541778847931 0  -0.2344434115929863 0.441225502334267 0  -0.1349409233725989 -0.3081519167298867 0  0.2361921270004774 0.236858231392783 0  -0.1134625589296566 0.3058057213872041 0  0.1364902237265291 -0.2193600350069504 0  -0.231009496195906 -0.2899916451544192 0  -0.4420301468408164 -0.0153626464053197 0  -0.3638407636123014 0.04989392276612995 0  -0.2281634567999949 -0.2293698735254731 0  -0.2404608239114909 0.2480193450766527 0  0.1548586079872366 0.3161601351946364 0  -0.2905808065687782 -0.2309892133488608 0  0.1583090638615736 -0.3223807786382032 0  0.3037640590628244 -0.1367963242859415 0  0.441474411355182 -0.3710236808063671 0  -0.1184457037417267 0.4214861255011078 0  0.3280783743867655 -0.2503846686276005 0  0.4421147536667354 -0.254616967737483 0  -0.4419160956032748 -0.2544205585064326 0  -0.3074463395544132 -0.1359279022829991 0  0.3366964226424555 0.256991018383815 0  -0.4508616135570574 0.21875 0  -0.3395120610056381 0.2372377549435862 0  -0.2261617732606898 -0.4465036260914809 0  0.2350726063974556 0.2936290504086719 0  0.007756726855498133 0.253726523067807 0  0.2816091581197124 -0.4531847002458751 0  0.002693579241951911 -0.4452927028974097 0  0.2614770372227774 0.3432624384800261 0  0.2905620892368345 0.2263682042801985 0  -0.2876366597373845 0.2178464403043631 0  0.2807413030307
[...]
<PointData  Vectors="f_44"> 
<DataArray  type="Float64"  Name="f_44"  NumberOfComponents="3" format="ascii">2.3855120100429408e-02 5.7142857142857148e-02 0.0000000000000000e+00  -9.6120004697220120e-03 1.9403218532728507e-02 0.0000000000000000e+00  9.3639332227728571e-03 1.9056376024804735e-02 0.0000000000000000e+00  -2.3782564204605044e-02 5.7142857142857155e-02 0.0000000000000000e+00  0.0000000000000000e+00 0.0000000000000000e+00 0.0000000000000000e+00  0.0000000000000000e+00 0.0000000000000000e+00 0.0000000000000000e+00  0.0000000000000000e+00 0.0000000000000000e+00 0.0000000000000000e+00  0.0000000000000000e+00 0.0000000000000000e+00 0.0000000000000000e+00  0.0000000000000000e+00 0.0000000000000000e+00 0.0000000000000000e+00  0.0000000000000000e+00 0.0000000000000000e+00 0.0000000000000000e+00  0.0000000000000000e+00 0.0000000000000000e+00 0.0000000000000000e+00  0.0000000000000000e+00 0.0000000000000000e+00 0.0000000000000000e+00  0.0000000000000000e+00 0.0000000000000000e+00 0.0000000000000000e+00  0.0000000000000000e+00 0.0000000000000000e+00 0.0000000000000000e+00  0.0000000000000000e+00 0.0000000000000000e+00 0.0000000000000000e+00  0.0000000000000000e+00 0.0000000000000000e+00 0.0000000000000000e+00  0.0000000000000000e+00 0.0000000000000000e+00 0.0000000000000000e+00  0.0000000000000000e+00 0.0000000000000000e+00 0.0000000000000000e+00  0.0000000000000000e+00 0.0000000000000000e+00 0.0000000000000000e+00  0.0000000000000000e+00 0.0000000000000000e+00 0.0000000000000000e+00  0.0000000000000000e+00 0.0000000000000000e+00 0.0000000000000000e+00  0.0000000000000000e+00 0.0000000000000000e+00 0.0000000000000000e+00  0.0000000000000000e+00 0.0000000000000000e+00 0.0000000000000000e+00  0.0000000000000000e+00 0.0000000000000000e+00 0.0000000000000000e+00  0.0000000000000000e+00 0.0000000000000000e+00 0.0000000000000000e+00  0.0000000000000000e+00 0.0000000000000000e+00 0.0000000000000000e+00  0.0000000000000000e+00 0.0000000000000000e+00 0.0000000000000000e+00  0.0000000000000000e+00 0.0000000000000000e+00 0.0000000000000000e+00  0.0000000000000000e+00 0.0000000000000000e+00 0.0000000000000000e+00  0.0000000000000000e+00 0.0000000000000000e+00 0.0000000000000000e+00  0.0000000000000000e+00 0.0000000000000000e+00 0.0000000000000000e+00  0.0000000000000000e+00 0.0000000000000000e+00 0.0000000000000000e+00  0.0000000000000000e+00 0.0000000000000000e+00 0.0000000000000000e+00  0.0000000000000000e+00 0.0000000000000000e+00 0.0000000000000000e+00  0.0000000000000000e+00 0.0000000000000000e+00 0.0000000000000000e+00  0.0000000000000000e+00 0.0000000000000000e+00 0.0000000000000000e+00  0.0000000000000000e+00 0.0000000000000000e+00 0.0000000000000000e+00  0.0000000000000000e+00 0.0000000000000000e+00 0.0000000000000000e+00  0.0000000000000000e+00 0.0000000000000000e+00 0.0000000000000000e+00  0.0000000000000000e+00 0.0000000000000000e+00 0.0000000000000000e+00  0.0000000000000000e+00 0.0000000000000000e+00 0.0000000000000000e+00  0.0000000000000000e+00 0.0000000000000000e+00 0.0000000000000000e+00  0.0000000000000000e+00 0.0000000000000000e+00 0.0000000000000000e+00  0.0000000000000000e+00 0.0000000000000000e+00 0.0000000000000000e+00  0.0000000000000000e+00 0.0000000000000000e+00 0.0000000000000000e+00  0.0000000000000000e+00 0.0000000000000000e+00 0.0000000000000000e+00  0.0000000000000000e+00 0.0000000000000000e+00 0.0000000000000000e+00  0.0000000000000000e+00 0.0000000000000000e+00 0.0000000000000000e+00  0.0000000000000000e+00 0.0000000000000000e+00 0.0000000000000000e+00  0.0000000000000000e+00 0.0000000000000000e+00 0.0000000000000000e+00  0.0000000000000000e+00 0.0000000000000000e+00 0.0000000000000000e+00  0.0000000000000000e+00 0.0000000000000000e+00 0.0000000000000000e+00  0.0000000000000000e+00 0.0000000000000000e+00 0.0000000000000000e+00  0.0000000000000000e+00 0.0000000000000000e+00 0.0000000000000000e+00  0.0000000000000000e+00 0.0000000000000000e+00 0.0000000000000000e+00  0.0000000000000000e+00 0.0000000000000000e+00 0.0000000000000000e+00  0.0000000000000000e+00 0.0000000000000000e+00 0.0000000000000000e+00  0.0000000000000000e+00 0.0000000000000000e+00 0.0000000000000000e+00  0.0000000000000000e+00 0.0000000000000000e+00 0.0000000000000000e+00  0.0000000000000000e+00 0.0000000000000000e+00 0.0000000000000000e+00  0.0000000000000000e+00 0.0000000000000000e+00 0.0000000000000000e+00  0.0000000000000000e+00 0.0000000000000000e+00 0.0000000000000000e+00  0.0000000000000000e+00 0.0000000000000000e+00 0.0000000000000000e+00  -1.3372858656670580e-04 3.4499162554074282e-03 0.0000000000000000e+00  1.0384444079768140e-04 5.7142857142857148e-02 0.0000000000000000e+00  4.7766797489503356e-03 3.0175777309246518e-02 0.0000000000000000e+00  -4.7441755356519340e-03 2.9901822407743157e-02 0.0000000000000000e+00  8.0322594037917864e-03 9.5082685237532980e-03 0.0000000000000000e+00  -1.6680742956428088e-02 5.7142857142857141e-02 0.0000000000000000e+00  -1.8154964554665889e-02 4.3443506918729134e-02 0.0000000000000000e+00  3.1037185377000070e-03 2.0372592578556229e-02 0.0000000000000000e+00  1.6814912470478425e-02 5.7142857142857148e-02 0.0000000000000000e+00  -8.2940859971786223e-03 9.6956906552752402e-03 0.0000000000000000e+00  -3.1927372036307218e-03 2.0714305848952241e-02 0.0000000000000000e+00  1.8205676367313406e-02 4.3601461045491480e-02 0.0000000000000000e+00  -1.5443503836088482e-02 3.5792415895667791e-02 0.0000000000000000e+00  3.9817205177006491e-03 1.0569762367027157e-02 0.0000000000000000e+00  1.5063728552865276e-02 3.4628342016100905e-02 0.0000000000000000e+00  -4.1056556596875187e-03 1.1055459555581371e-02 0.0000000000000000e+00  9.3831958513694511e-03 3.5284348271781736e-02 0.0000000000000000e+00  1.5341480558053232e-03 1.7114936946738154e-02 0.0000000000000000e+00  -9.2339079807931181e-03 3.5665195404809204e-02 0.0000000000000000e+00  -9.0092251995825112e-03 2.8038963227783573e-02 0.0000000000000000e+00  -1.4575994685903342e-03 1.7389484680242779e-02 0.0000000000000000e+00  -2.7026586822287463e-03 3.9948441392471971e-03 0.0000000000000000e+00  2.5785320942121365e-03 3.9477256995165012e-03 0.0000000000000000e+00  8.1777889167583603e-03 2.7083006006854104e-02 0.0000000000000000e+00  2.2466464840724204e-02 5.0219034370628725e-02 0.0000000000000000e+00  5.7301931512941853e-03 1.9093582993136925e-02 0.0000000000000000e+00  -9.5758117952416261e-03 1.4998012155443455e-02 0.0000000000000000e+00  -2.2407092094762320e-02 5.0136421088012133e-02 0.0000000000000000e+00  2.1195506612312703e-02 5.7142857142857148e-02 0.0000000000000000e+00  9.3230229626856728e-03 1.4731496695723580e-02 0.0000000000000000e+00  -5.8973820484652592e-03 1.9440324241588220e-02 0.0000000000000000e+00  -2.1104403921928458e-02 5.7142857142857148e-02 0.0000000000000000e+00  -5.7148984136186432e-05 1.6343531874887880e-03 0.0000000000000000e+00  1.0576763708271402e-04 3.4271051666187914e-02 0.0000000000000000e+00  1.1602781859848270e-02 3.6961115488006971e-02 0.0000000000000000e+00  -4.9150729085010664e-03 5.2084479005750171e-03 0.0000000000000000e+00  -1.5324721787784935e-04 2.4338434528664941e-02 0.0000000000000000e+00  -1.1556759091100299e-02 3.6742582070823752e-02 0.0000000000000000e+00  1.3702784338821342e-04 2.4025564654890398e-02 0.0000000000000000e+00  4.6575264657240725e-03 5.1148602792266294e-03 0.0000000000000000e+00  9.7114549644722221e-03 5.7142857142857141e-02 0.0000000000000000e+00  -9.5342722939799791e-03 5.7142857142857148e-02 0.0000000000000000e+00  -2.7017684931324231e-03 2.2182418792196203e-02 0.0000000000000000e+00  1.9901626365340683e-02 4.6826320122555193e-02 0.0000000000000000e+00  2.6666062306352754e-03 2.2840227969938575e-02 0.0000000000000000e+00  1.5795153429638612e-02 4.2840937794245124e-02 0.0000000000000000e+00  5.7363816436766090e-03 1.4833321164361214e-02 0.0000000000000000e+00  -5.9264385318787789e-03 1.5136959876596121e-02 0.0000000000000000e+00  -2.0000729146044921e-02 4.7200812566337833e-02 0.0000000000000000e+00  -2.5994292904201011e-03 4.7832345513786545e-03 0.0000000000000000e+00  -2.6493375283599633e-03 9.0709365886216132e-03 0.0000000000000000e+00  1.0458105662164636e-02 2.3567128492752453e-02 0.0000000000000000e+00  3.4309883885643875e-03 1.6380268496493332e-02 0.0000000000000000e+00  -1.0367788457803465e-02 2.3591369395340230e-02 0.0000000000000000e+00  -9.5676936259000544e-03 2.2775709446679820e-02 0.0000000000000000e+00  2.6105796795540537e-03 8.8587355334979519e-03 0.0000000000000000e+00  2.4672080318905777e-03 4.4960095999736372e-03 0.0000000000000000e+00  -3.4089527322193731e-03 1.6818033398141852e-02 0.0000000000000000e+00  -4.9260320909900049e-03 8.4740803586135331e-03 0.0000000000000000e+00  -1.7090205001435353e-02 4.5617379279947023e-02 0.0000000000000000e+00  -1.5388125772573195e-02 3.6928850017365109e-02 0.0000000000000000e+00  5.4109546865832216e-03 1.0109280041991790e-02 0.0000000000000000e+00  9.1705333375872722e-03 2.1539351150912701e-02 0.0000000000000000e+00  1.4729595886014954e-02 3.6216755034853644e-02 0.0000000000000000e+00  -4.8922614511254826e-03 1.9205414986244763e-02 0.0000000000000000e+00  2.5699726644235117e-03 1.6140358422707994e-02 0.0000000000000000e+00  -1.2512994854581841e-03 1.8322103849724965e-03 0.0000000000000000e+00  1.0327602546136411e-03 1.1342772419443823e-02 0.0000000000000000e+00  4.0874237942956446e-03 1.9710411894386760e-02 0.0000000000000000e+00  -4.4041547735289843e-03 1.7175279953860235e-02 0.0000000000000000e+00  1.1455574941413864e-03 1.7729165717240698e-03 0.0000000000000000e+00  -1.2848277839500471e-03 1.0763868515989254e-02 0.0000000000000000e+00  -1.3363975297671225e-02 4.7763978930634630e-02 0.0000000000000000e+00  -1.2287283998768741e-03 2.7957242592782047e-03 0.0000000000000000e+00  4.8019309769783370e-03 6.7014531089762972e-03 0.0000000000000000e+00  1.6828651741097270e-03 3.1949890846537637e-03 0.0000000000000000e+00  -7.1090843654876930e-03 2.9593942915094713e-02 0.0000000000000000e+00  -5.2068629822822465e-03 4.5496825055360471e-02 0.0000000000000000e+00  5.1002173081742333e-03 4.6189115724931527e-02 0.0000000000000000e+00  -1.9363287180719668e-02 4.4188811102364660e-02 0.0000000000000000e+00  -4.6462942266743204e-03 1.7979494466092219e-02 0.0000000000000000e+00  -6.9041052698074765e-03 1.2114932614809672e-02 0.0000000000000000e+00  4.5190500465808990e-03 1.7672168870995843e-02 0.0000000000000000e+00  1.9001637604534691e-02 5.0843367457064616e-02 0.0000000000000000e+00  1.9605010129937574e-02 4.4643916202783615e-02 0.0000000000000000e+00  2.2313556716032253e-02 5.2803964049849508e-02 0.0000000000000000e+00  8.0480458741099738e-03 3.3545490465663318e-02 0.0000000000000000e+00  -2.0060463052400859e-03 2.6742626914360520e-02 0.0000000000000000e+00  7.4088515246588469e-03 1.9032509993743948e-02 0.0000000000000000e+00  -9.6345905627376917e-03 1.7336160106011168e-02 0.0000000000000000e+00  -2.3440937993943606e-02 5.3600638619790981e-02 0.0000000000000000e+00  1.3644765317644815e-02 5.7142857142857141e-02 0.0000000000000000e+00  6.8478151846927313e-04 2.3312379905695391e-02 0.0000000000000000e+00  3.7548649203846410e-03 7.1123012753985665e-03 0.0000000000000000e+00  -1.3540347113184657e-02 3.6325982752090952e-02 0.0000000000000000e+00  1.9648364944053402e-03 1.9951474370413148e-02 0.0000000000000000e+00  -4.5737305855327454e-03 6.0315960398832991e-03 0.0000000000000000e+00  -1.5052189123457805e-02 4.0124599327128009e-02 0.0000000000000000e+00  -1.8236312802812505e-03 2.2211603444050571e-02 0.0000000000000000e+00  -1.3327926463122368e-03 1.4812444303239925e-02 0.0000000000000000e+00  4.9300636586614259e-03 1.5869459611588803e-02 0.0000000000000000e+00  -1.9293952344131547e-03 2.0093512738317314e-02 0.0000000000000000e+00  -7.3169259090845480e-04 2.2540374865172602e-02 0.0000000000000000e+00  -1.2175297409034854e-02 3.4574271052077304e-02 0.0000000000000000e+00  1.2851496196230655e-02 4.6023934343854975e-02 0.0000000000000000e+00  1.1314335949228564e-02 2.8944021701888104e-02 0.0000000000000000e+00  -4.5611018687439662e-03 1.4842159302669881e-02 0.0000000000000000e+00  6.6992112698445148e-03 2.8880928372496416e-02 0.0000000000000000e+00  1.7267148349775809e-02 3.9817370665589984e-02 0.0000000000000000e+00  -5.2290864150811847e-03 1.1664782140692274e-02 0.0000000000000000e+00  -1.9179389322047557e-02 5.7142857142857141e-02 0.0000000000000000e+00  6.9869933424096514e-03 1.3001386740458422e-02 0.0000000000000000e+00  -1.7784592994193306e-02 4.1014176448298231e-02 0.0000000000000000e+00  1.1654451851448869e-02 3.3970221696488785e-02 0.0000000000000000e+00  9.3850001241043857e-03 1.7027039915811074e-02 0.0000000000000000e+00  -7.6183450404872450e-03 1.9382065797202190e-02 0.0000000000000000e+00  -2.2594688265678030e-02 5.7142857142857155e-02 0.0000000000000000e+00  4.4414358492562353e-03 1.4321499955175081e-02 0.0000000000000000e+00  -3.4691495920865724e-03 6.0435886033830596e-03 0.0000000000000000e+00  2.8679157372902787e-03 1.3824134413094357e-02 0.0000000000000000e+00  -1.9572774183807470e-02 5.0842615983134387e-02 0.0000000000000000e+00  -2.8612574182887932e-03 1.4125725059929930e-02 0.0000000000000000e+00  -1.1938153780733965e-02 3.0004275031115208e-02 0.0000000000000000e+00  7.1127896961753184e-03 1.6730188745772024e-02 0.0000000000000000e+00  1.4072397571544578e-02 3.3936937518856111e-02 0.0000000000000000e+00  -7.6039612996474416e-03 1.6201728453045107e-02 0.0000000000000000e+00  -2.1986482413684543e-02 5.2118507048067794e-02 0.0000000000000000e+00  3.3848456405602871e-05 1.7240296772751754e-02 0.0000000000000000e+00  5.6732953498924380e-05 7.8368010692572807e-04 0.0000000000000000e+00  1.9934856261645795e-03 4.2086461966276793e-03 0.0000000000000000e+00  1.8007417837632919e-02 4.4304094257908481e-02 0.0000000000000000e+00  -1.3159339078288369e-03 2.3247591744765608e-03 0.0000000000000000e+00  1.1933771815252061e-03 2.3022385976787141e-03 0.0000000000000000e+00  -7.5870430444270167e-03 1.5769470302044352e-02 0.0000000000000000e+00  3.4002957038820319e-03 4.5704514470122819e-03 0.0000000000000000e+00  6.3957724874540061e-03 1.4930457226183771e-02 0.0000000000000000e+00  -3.0663622584977705e-03 4.0905921186779673e-03 0.0000000000000000e+00  -5.4941051262733540e-04 2.1679831210944172e-02 0.0000000000000000e+00  -1.9438464428142182e-03 4.3365626597843092e-03 0.0000000000000000e+00  -6.3104967580954489e-03 1.3912027252010604e-02 0.0000000000000000e+00  1.5099889222533991e-02 4.0312668974206128e-02 0.0000000000000000e+00  5.0596739782984099e-03 3.5032815737644094e-02 0.0000000000000000e+00  -4.6709490460404733e-03 3.0788065753440032e-02 0.0000000000000000e+00  8.8653725836782896e-05 4.5824491812299695e-02 0.0000000000000000e+00  -1.7715964856092139e-02 4.2518283993246885e-02 0.0000000000000000e+00  -3.9574067654635833e-03 2.6712630183763873e-02 0.0000000000000000e+00  -1.9433077764666470e-05 1.7687614463110696e-02 0.0000000000000000e+00  -5.6718903507799699e-03 2.4908650100400435e-02 0.0000000000000000e+00  4.9240778324300804e-03 1.1967636644556834e-02 0.0000000000000000e+00  1.7816134709076567e-03 2.1878114717608380e-02 0.0000000000000000e+00  2.0212616002711122e-03 2.7041095840774104e-02 0.0000000000000000e+00  2.0697685412877007e-02 4.6878318221646481e-02 0.0000000000000000e+00  -6.8513538233663162e-03 7.2132800692349111e-03 0.0000000000000000e+00  1.9292970303105055e-02 5.7142857142857141e-02 0.0000000000000000e+00  -9.1772986916991792e-03 1.2386083584241292e-02 0.0000000000000000e+00  -4.4734812472932688e-03 1.9823834938086506e-02 0.0000000000000000e+00  -2.0640014977530714e-02 4.6754798574087479e-02 0.0000000000000000e+00  5.1140277608580044e-03 5.7142857142857148e-02 0.0000000000000000e+00  -8.0064217552675357e-03 3.3298366986882280e-02 0.0000000000000000e+00  2.3520126919966316e-03 3.8621707419482006e-03 0.0000000000000000e+00  6.5898810969382167e-03 7.0645834638632683e-03 0.0000000000000000e+00  8.9250157692249976e-03 1.2155874702394737e-02 0.0000000000000000e+00  -1.3483591093950401e-02 5.7142857142857148e-02 0.0000000000000000e+00  -4.9130927415708178e-03 5.7142857142857148e-02 0.0000000000000000e+00  4.3447723343261104e-03 1.9477400351884229e-02 0.0000000000000000e+00  2.2677815763412934e-02 5.7142857142857134e-02 0.0000000000000000e+00  2.3509218915345458e-02 5.3646772494301373e-02 0.0000000000000000e+00  -2.6223917997046011e-03 3.9146803075341390e-03 0.0000000000000000e+00  2.0862551476058557e-02 5.1985739006677585e-02 0.0000000000000000e+00  1.6699614106997747e-03 6.4471909597744771e-03 0.0000000000000000e+00  -5.0668734562940064e-03 1.3988146987918735e-02 0.0000000000000000e+00  2.1292073173981300e-02 4.8627432533150841e-02 0.0000000000000000e+00  7.3885059548882536e-03 1.5118488467624357e-02 0.0000000000000000e+00  -1.3943989150131462e-03 2.0150174032403699e-03 0.0000000000000000e+00  -5.9171642527162879e-03 1.7580512715840876e-02 0.0000000000000000e+00  3.1025125146911647e-03 7.7123521128810843e-03 0.0000000000000000e+00  2.9366588746193426e-04 2.3481321611733648e-03 0.0000000000000000e+00  -8.2177138982349150e-03 2.3458659985413934e-02 0.0000000000000000e+00  -9.6047562815189461e-03 4.5512133443637186e-02 0.0000000000000000e+00  2.3718228367776071e-05 1.0024815287369310e-02 0.0000000000000000e+00  1.2835155184224831e-02 3.6597956252895247e-02 0.0000000000000000e+00  -1.5577053813051914e-02 3.8863376751529281e-02 0.0000000000000000e+00  -1.7047525032903800e-03 6.0463932226291527e-03 0.0000000000000000e+00  -2.1135606253830919e-02 4.8247464367134514e-02 0.0000000000000000e+00  1.5944833399085565e-02 4.9855396677599695e-02 0.0000000000000000e+00  -2.3507600047525568e-03 3.6692136463271400e-03 0.0000000000000000e+00  -1.1642994079512756e-02 2.5943787939311243e-02 0.0000000000000000e+00  8.0727078421963423e-03 2.5170805743341160e-02 0.0000000000000000e+00  1.4045191963921050e-03 2.1659578804171776e-03 0.0000000000000000e+00  -3.5696755059509457e-03 7.7528686291216797e-03 0.0000000000000000e+00  3.1820344991272871e-03 2.6358961593537709e-02 0.0000000000000000e+00  5.0092008392630481e-03 2.4038593246356238e-02 0.0000000000000000e+00  -2.9335528981855770e-03 7.1620814942973286e-03 0.0000000000000000e+00  1.2362396010159841e-02 2.7732199630950041e-02 0.0000000000000000e+00  -1.0502456929182733e-02 2.9379785273291607e-02 0.0000000000000000e+00  -3.4011539427523927e-03 1.1104664636301335e-02 0.0000000000000000e+00  2.7318576772343410e-03 4.5590436705777180e-03 0.0000000000000000e+00  2.0874381035806710e-03 1.2402887248884335e-02 0.0000000000000000e+00  5.6884640519003086e-03 1.7379543071123951e-02 0.0000000000000000e+00  9.1848274428570319e-03 4.4430210634951929e-02 0.0000000000000000e+00  3.6488750244238082e-03 1.3050658976029810e-02 0.0000000000000000e+00  3.4911334119281335e-03 1.8596361171204039e-02 0.0000000000000000e+00  -3.5769551076941025e-03 1.8897399866459132e-02 0.0000000000000000e+00  -2.0854856024345812e-03 1.2964307904249900e-02 0.0000000000000000e+00  -1.5318855412555453e-02 3.5587227619295385e-02 0.0000000000000000e+00  1.5904081948062372e-02 3.9507225966117734e-02 0.0000000000000000e+00  1.4602735192310576e-02 3.4392602635641083e-02 0.0000000000000000e+00  -6.0361989104037112e-03 8.3832127450004373e-03 0.0000000000000000e+00  -1.3631889389849779e-02 3.2132812459650828e-02 0.0000000000000000e+00  -4.0101128859881818e-04 1.0634079000181727e-02 0.0000000000000000e+00  6.8753289650587395e-03 1.0650886529378444e-02 0.0000000000000000e+00  -3.2777488247313532e-05 2.8578881175629345e-03 0.0000000000000000e+00  -1.5785283217526761e-02 3.9297350930195991e-02 0.0000000000000000e+00  -1.2823990064123712e-02 2.9725010418588674e-02 0.0000000000000000e+00  1.2426349490556043e-02 2.8931033690425056e-02 0.0000000000000000e+00  -1.7864790684969885e-02 5.1937522079985136e-02 0.0000000000000000e+00  5.1281554619533910e-03 1.2667168978065451e-02 0.0000000000000000e+00  1.7357669250190663e-02 4.0659773614397668e-02 0.0000000000000000e+00  1.1776502514606123e-02 3.1954597527690302e-02 0.0000000000000000e+00  -3.8293815639289359e-03 1.388196432788050