<?xml version="1.0"?>
<VTKFile type="UnstructuredGrid"  version="0.1"  >
<UnstructuredGrid>
<Piece  NumberOfPoints="5173" NumberOfCells="9966">
<Points>
<DataArray  type="Float64"  NumberOfComponents="3"  format="ascii">-0.5 0.5 0  -0.5 -0.5 0  0.5 -0.5 0  0.5 0.5 0  0.1998669600420274 0.02125869712947308 0  0.201 0 0  0.1998669600420274 -0.02125869712947312 0  0.1964806779635733 -0.04227652472592507 0  0.1908795216936763 -0.06281534240438978 0  0.1831269545709826 -0.08264243715367564 0  0.1733108162787611 -0.1015331600677681 0  0.1615423275861927 -0.1192734717077003 0  0.1479548301726135 -0.1356623672539232 0  0.1327022758130076 -0.1505141539712278 0  0.1159574820428814 -0.1636605551816338 0  0.09791017406652992 -0.1749526169063923 0  0.07876483509466403 -0.1842623955740826 0  0.05873838946792427 -0.1914844076724011 0  0.03805774481742277 -0.1965368249185042 0  0.01695722111061653 -0.1993624014061501 0  -0.004324104287555032 -0.1999291222246905 0  -0.02554510545674447 -0.1982305662008014 0  -0.04646533997422303 -0.194285978652942 0  -0.06684777322360611 -0.1881400533342067 0  -0.08646146409177112 -0.1798624260342438 0  -0.1050841816239485 -0.1695468855779342 0  -0.1225049229892384 -0.1573103111605285 0  -0.138526304226997 -0.143291348059663 0  -0.1529667966859812 -0.127648836728964 0  -0.165662783816503 -0.1105600130722386 0  -0.1764704150113143 -0.0922185002898652 0  -0.1852672354904677 -0.07283211505056446 0  -0.1919535737629032 -0.05262051284550421 0  -0.1964536709442689 -0.03181269920381437 0  -0.1987165391353524 -0.0106444349684357 0  -0.1987165391353524 0.01064443496843575 0  -0.1964536709442689 0.03181269920381442 0  -0.1919535737629032 0.05262051284550433 0  -0.1852672354904677 0.07283211505056443 0  -0.1764704150113143 0.09221850028986515 0  -0.165662783816503 0.1105600130722387 0  -0.1529667966859812 0.1276488367289641 0  -0.1385263042269969 0.1432913480596631 0  -0.1225049229892383 0.1573103111605285 0  -0.1050841816239485 0.1695468855779342 0  -0.08646146409177108 0.1798624260342438 0  -0.06684777322360606 0.1881400533342067 0  -0.04646533997422297 0.194285978652942 0  -0.02554510545674437 0.1982305662008015 0  -0.004324104287554939 0.1999291222246905 0  0.01695722111061662 0.19936240140615 0  0.03805774481742286 0.1965368249185042 0  0.05873838946792424 0.1914844076724011 0  0.07876483509466414 0.1842623955740826 0  0.09791017406653006 0.1749526169063922 0  0.1159574820428814 0.1636605551816338 0  0.1327022758130078 0.1505141539712277 0  0.1479548301726135 0.1356623672539232 0  0.1615423275861927 0.1192734717077003 0  0.1733108162787612 0.101533160067768 0  0.1831269545709827 0.08264243715367564 0  0.1908795216936763 0.06281534240438975 0  0.1964806779635734 0.04227652472592486 0  0 -0.5 0  0 0.5 0  -0.5 0 0  0.5 0 0  0.25 -0.5 0  0.25 0.5 0  0.5 0.25 0  0.5 -0.25 0  -0.25 0.5 0  -0.25 -0.5 0  -0.5 -0.25 0  -0.5 0.25 0  0.2918258229480683 0.2918258229480682 0  0.2865867850624828 -0.2932931940421196 0  -0.2962949893701896 0.274449924397287 0  -0.2913160373738303 -0.2913160373738304 0  -0.125 0.3636995408959175 0  0.3637738468862107 -0.1261303957107176 0  0.125 0.3665964626830409 0  0.3640958654762797 0.1232161970438493 0  -0.3624000654276585 -0.1218337159209422 0  -0.125 -0.3668200952157802 0  0.125 -0.3712838880907947 0  -0.3600991828528437 0.1089843577122111 0  -0.5 0.375 0  0.5 -0.375 0  -0.375 -0.5 0  0.5 0.375 0  -0.375 0.5 0  0.375 -0.5 0  -0.5 -0.375 0  0.375 0.5 0  0.0006860903712339345 -0.3306266888645853 0  -0.000109901520948898 0.3746323380112415 0  -0.5 0.125 0  -0.125 -0.5 0  -0.5 -0.125 0  0.5 0.125 0  0.5 -0.125 0  0.125 -0.5 0  -0.125 0.5 0  0.125 0.5 0  0.3748576787807123 -0.001471205609738957 0  -0.3738828512115154 0.3738828512115154 0  -0.3827617049088436 -0.006210238480157219 0  -0.2429234745416257 0.3810213699917807 0  0.3769180353829246 -0.3769180353829246 0  -0.3777687524152424 -0.3777687524152424 0  0.3780704009792175 0.3780704009792175 0  -0.1776483227107271 -0.2618630460446135 0  -0.2604485542051718 -0.1787215021996984 0  -0.1798547561877991 0.2599748505350166 0  0.3864703130478905 -0.2380123189195306 0  0.1785319646943122 0.2625417448451246 0  0.261692611046212 0.1791168901036931 0  0.2607171500730768 -0.1799460669666111 0  0.1733970740599892 -0.2651674952354912 0  -0.3880520258539732 -0.2322407641539351 0  -0.2352016482221373 -0.388638232840279 0  0.2734696242623063 0.3964265996649794 0  0.3883795026617865 0.233417864889234 0  0.2738670858792859 -0.3976331321261044 0  -0.2491638954018168 0.1780101911767213 0  -0.3926686215746083 0.2165776265637375 0  0.07109213498061834 0.2869023807262104 0  -0.2934183534017453 0.03147305416145122 0  -0.08119265072200343 -0.2826195781877594 0  0.2836913223256923 -0.07709296110799269 0  -0.0558729689268372 0.2928347535333279 0  0.2830965643121598 0.07693076420704528 0  0.08122371629649494 -0.2825469282280794 0  -0.2767834230915197 -0.08819590430941976 0  0.1875 0.4332982313415205 0  -0.04303186331845871 -0.4151376431551652 0  0.190970733019215 -0.4322714131851434 0  0.06249999999999999 -0.4356419440453974 0  0.4328061849987423 0.06633847947711793 0  0.0664712649494027 0.4332982313415205 0  -0.06249999999999998 0.4373709104419552 0  0.4341377633941729 0.309372588857957 0  -0.4374372828954266 -0.3125 0  -0.3104572497507675 -0.4353019888851174 0  0.4374701104890421 -0.3125 0  -0.3116291712721947 0.4366347031852421 0  -0.4374901042687089 0.3125 0  -0.4363926600558238 0.4363926600558238 0  -0.5 0.0625 0  0.5 -0.0625 0  0.5 -0.4375 0  -0.4375 -0.5 0  0.5 0.4375 0  -0.1875 0.5 0  -0.4323246583268963 -0.07454303397230311 0  0.2154950463309389 -0.3375719358844427 0  0.206977802238796 0.342973363124546 0  0.4322596267199844 -0.1704803839098939 0  -0.1690769129391571 -0.4334100476078901 0  0.5 0.1875 0  -0.5 -0.1875 0  0.2967149326504868 -2.965984816150069e-05 0  -0.2579082457853068 0.1006999711688991 0  -0.4261732609354634 -0.1652001701086123 0  0.4197274728231854 -0.06828306080156128 0  0.4316260558094222 0.15625 0  -0.1765935890523967 0.4225213035878151 0  -0.326101012911042 0.1780020696215199 0  -0.3639018823524438 -0.3051829074366289 0  -0.4219359613016062 0.06132313683084987 0  -0.368871881750981 0.2861301036496543 0  -0.3031928482819811 -0.3630024307590357 0  0.3125 0.5 0  0.3355547846059301 -0.437829382399898 0  0.3620936304880762 0.3078025934392096 0  -0.4265460575686851 0.1475964618934338 0  0.4375 -0.5 0  -0.5 -0.4375 0  0.4375 0.5 0  0.3587983613906559 -0.3058906763528768 0  -0.1889171018677358 -0.3331988582480375 0  0.3319769361362775 -0.1908238194547704 0  0.3337713745363715 0.4328433800405805 0  -0.3319644446835826 -0.1870886352472088 0  0.3329253892881625 0.1878611701133833 0  0.4281511341447153 -0.4281511341447153 0  -0.232840147849867 0.3093215053326949 0  -0.40625 -0.4395608850352885 0  0.428794887401249 0.428794887401249 0  -0.3380841551254475 -0.05794700007688498 0  0.008054260670409629 -0.2648994211243904 0  0.1899220001124564 -0.1947534447033338 0  -0.3080416507322476 0.3708200057439822 0  -0.06307278823153059 -0.3455430469652901 0  0.06447087227249242 -0.3459780260685607 0  0.1914876772934198 0.1922953616824615 0  0.1267822167193652 -0.4357424153550361 0  -0.1100367963981227 0.2468729543145758 0  -0.1040301628609493 -0.4382371732506554 0  0.008496887133013969 0.3088587185741126 0  -0.1939711685411953 -0.1799889819170536 0  0.1169089524024441 0.2383640108781663 0  -0.5 0.1875 0  -0.06301873836730842 0.3744639870876723 0  0.0612272731888486 0.3516549422231338 0  0.0001842875295821901 0.4373159592812666 0  0.315570863666392 0.3499038328432952 0  0.43737589643705 0.003767781375474147 0  0.3480437072584214 -0.06190943679164183 0  0.3704548124556613 0.06095691071954262 0  0.3139725644615085 -0.3495769689516506 0  0.5 -0.1875 0  -0.5 -0.0625 0  -0.5 0.3125 0  -0.1875 -0.5 0  -0.3125 0.5 0  -0.3125 -0.5 0  -0.5 -0.3125 0  0.5 0.3125 0  -0.0625 0.5 0  0.5 0.0625 0  0.0625 -0.5 0  0.1875 -0.5 0  0.3125 -0.5 0  0.1875 0.5 0  0.0625 0.5 0  0.5 -0.3125 0  -0.4375 0.5 0  -0.5 0.4375 0  -0.0625 -0.5 0  -0.3740130545720807 0.4376162026208867 0  0.2356432480937504 -0.1203529309141897 0  0.2354253261260549 0.120280228505195 0  -0.4358389466402443 0.374436564627095 0  -0.1837098359759774 0.1929485386776155 0  -0.1210077767998366 -0.2331474219302516 0  -0.4388230181844467 -0.3736756227341544 0  0.2385916116983025 -0.2446215854929363 0  0.01618154697154811 -0.392205807603664 0  0.3033224724982568 0.1345019962362828 0  0.1269856324747013 0.4273682536406486 0  -0.2618767198442009 -0.02513308225372456 0  -0.1869024341550137 0.3523407916866587 0  0.4460792014197047 0.2150519456240759 0  -0.228067921023645 -0.1261420173261541 0  0.4375111104956734 0.3693541778847931 0  -0.2344434115929863 0.441225502334267 0  -0.1349409233725989 -0.3081519167298867 0  0.2361921270004774 0.236858231392783 0  -0.1134625589296566 0.3058057213872041 0  0.1364902237265291 -0.2193600350069504 0  -0.231009496195906 -0.2899916451544192 0  -0.4420301468408164 -0.0153626464053197 0  -0.3638407636123014 0.04989392276612995 0  -0.2281634567999949 -0.2293698735254731 0  -0.2404608239114909 0.2480193450766527 0  0.1548586079872366 0.3161601351946364 0  -0.2905808065687782 -0.2309892133488608 0  0.1583090638615736 -0.3223807786382032 0  0.3037640590628244 -0.1367963242859415 0  0.441474411355182 -0.3710236808063671 0  -0.1184457037417267 0.4214861255011078 0  0.3280783743867655 -0.2503846686276005 0  0.4421147536667354 -0.254616967737483 0  -0.4419160956032748 -0.2544205585064326 0  -0.3074463395544132 -0.1359279022829991 0  0.3366964226424555 0.256991018383815 0  -0.4508616135570574 0.21875 0  -0.3395120610056381 0.2372377549435862 0  -0.2261617732606898 -0.4465036260914809 0  0.2350726063974556 0.2936290504086719 0  0.007756726855498133 0.253726523067807 0  0.2816091581197124 -0.4531847002458751 0  0.002693579241951911 -0.4452927028974097 0  0.2614770372227774 0.3432624384800261 0  0.2905620892368345 0.2263682042801985 0  -0.2876366597373845 0.2178464403043631 0  0.2807413030307
[...]
<PointData  Vectors="f_44"> 
<DataArray  type="Float64"  Name="f_44"  NumberOfComponents="3" format="ascii">1.0223622900184024e-02 2.4489795918367349e-02 0.0000000000000000e+00  -4.1194287727380043e-03 8.3156650854550752e-03 0.0000000000000000e+00  4.0131142383312219e-03 8.1670182963448790e-03 0.0000000000000000e+00  -1.0192527516259309e-02 2.4489795918367353e-02 0.0000000000000000e+00  0.0000000000000000e+00 0.0000000000000000e+00 0.0000000000000000e+00  0.0000000000000000e+00 0.0000000000000000e+00 0.0000000000000000e+00  0.0000000000000000e+00 0.0000000000000000e+00 0.0000000000000000e+00  0.0000000000000000e+00 0.0000000000000000e+00 0.0000000000000000e+00  0.0000000000000000e+00 0.0000000000000000e+00 0.0000000000000000e+00  0.0000000000000000e+00 0.0000000000000000e+00 0.0000000000000000e+00  0.0000000000000000e+00 0.0000000000000000e+00 0.0000000000000000e+00  0.0000000000000000e+00 0.0000000000000000e+00 0.0000000000000000e+00  0.0000000000000000e+00 0.0000000000000000e+00 0.0000000000000000e+00  0.0000000000000000e+00 0.0000000000000000e+00 0.0000000000000000e+00  0.0000000000000000e+00 0.0000000000000000e+00 0.0000000000000000e+00  0.0000000000000000e+00 0.0000000000000000e+00 0.0000000000000000e+00  0.0000000000000000e+00 0.0000000000000000e+00 0.0000000000000000e+00  0.0000000000000000e+00 0.0000000000000000e+00 0.0000000000000000e+00  0.0000000000000000e+00 0.0000000000000000e+00 0.0000000000000000e+00  0.0000000000000000e+00 0.0000000000000000e+00 0.0000000000000000e+00  0.0000000000000000e+00 0.0000000000000000e+00 0.0000000000000000e+00  0.0000000000000000e+00 0.0000000000000000e+00 0.0000000000000000e+00  0.0000000000000000e+00 0.0000000000000000e+00 0.0000000000000000e+00  0.0000000000000000e+00 0.0000000000000000e+00 0.0000000000000000e+00  0.0000000000000000e+00 0.0000000000000000e+00 0.0000000000000000e+00  0.0000000000000000e+00 0.0000000000000000e+00 0.0000000000000000e+00  0.0000000000000000e+00 0.0000000000000000e+00 0.0000000000000000e+00  0.0000000000000000e+00 0.0000000000000000e+00 0.0000000000000000e+00  0.0000000000000000e+00 0.0000000000000000e+00 0.0000000000000000e+00  0.0000000000000000e+00 0.0000000000000000e+00 0.0000000000000000e+00  0.0000000000000000e+00 0.0000000000000000e+00 0.0000000000000000e+00  0.0000000000000000e+00 0.0000000000000000e+00 0.0000000000000000e+00  0.0000000000000000e+00 0.0000000000000000e+00 0.0000000000000000e+00  0.0000000000000000e+00 0.0000000000000000e+00 0.0000000000000000e+00  0.0000000000000000e+00 0.0000000000000000e+00 0.0000000000000000e+00  0.0000000000000000e+00 0.0000000000000000e+00 0.0000000000000000e+00  0.0000000000000000e+00 0.0000000000000000e+00 0.0000000000000000e+00  0.0000000000000000e+00 0.0000000000000000e+00 0.0000000000000000e+00  0.0000000000000000e+00 0.0000000000000000e+00 0.0000000000000000e+00  0.0000000000000000e+00 0.0000000000000000e+00 0.0000000000000000e+00  0.0000000000000000e+00 0.0000000000000000e+00 0.0000000000000000e+00  0.0000000000000000e+00 0.0000000000000000e+00 0.0000000000000000e+00  0.0000000000000000e+00 0.0000000000000000e+00 0.0000000000000000e+00  0.0000000000000000e+00 0.0000000000000000e+00 0.0000000000000000e+00  0.0000000000000000e+00 0.0000000000000000e+00 0.0000000000000000e+00  0.0000000000000000e+00 0.0000000000000000e+00 0.0000000000000000e+00  0.0000000000000000e+00 0.0000000000000000e+00 0.0000000000000000e+00  0.0000000000000000e+00 0.0000000000000000e+00 0.0000000000000000e+00  0.0000000000000000e+00 0.0000000000000000e+00 0.0000000000000000e+00  0.0000000000000000e+00 0.0000000000000000e+00 0.0000000000000000e+00  0.0000000000000000e+00 0.0000000000000000e+00 0.0000000000000000e+00  0.0000000000000000e+00 0.0000000000000000e+00 0.0000000000000000e+00  0.0000000000000000e+00 0.0000000000000000e+00 0.0000000000000000e+00  0.0000000000000000e+00 0.0000000000000000e+00 0.0000000000000000e+00  0.0000000000000000e+00 0.0000000000000000e+00 0.0000000000000000e+00  0.0000000000000000e+00 0.0000000000000000e+00 0.0000000000000000e+00  0.0000000000000000e+00 0.0000000000000000e+00 0.0000000000000000e+00  0.0000000000000000e+00 0.0000000000000000e+00 0.0000000000000000e+00  0.0000000000000000e+00 0.0000000000000000e+00 0.0000000000000000e+00  0.0000000000000000e+00 0.0000000000000000e+00 0.0000000000000000e+00  0.0000000000000000e+00 0.0000000000000000e+00 0.0000000000000000e+00  0.0000000000000000e+00 0.0000000000000000e+00 0.0000000000000000e+00  0.0000000000000000e+00 0.0000000000000000e+00 0.0000000000000000e+00  -5.7312251385732851e-05 1.4785355380317552e-03 0.0000000000000000e+00  4.4504760341871901e-05 2.4489795918367349e-02 0.0000000000000000e+00  2.0471484638358577e-03 1.2932475989677084e-02 0.0000000000000000e+00  -2.0332180867079727e-03 1.2815066746175633e-02 0.0000000000000000e+00  3.4423968873393334e-03 4.0749722244656991e-03 0.0000000000000000e+00  -7.1488898384691807e-03 2.4489795918367349e-02 0.0000000000000000e+00  -7.7806990948568059e-03 1.8618645822312482e-02 0.0000000000000000e+00  1.3301650875857159e-03 8.7311111050955188e-03 0.0000000000000000e+00  7.2063910587764780e-03 2.4489795918367353e-02 0.0000000000000000e+00  -3.5546082845051255e-03 4.1552959951179601e-03 0.0000000000000000e+00  -1.3683159444131676e-03 8.8775596495509635e-03 0.0000000000000000e+00  7.8024327288486010e-03 1.8686340448067780e-02 0.0000000000000000e+00  -6.6186445011807782e-03 1.5339606812429050e-02 0.0000000000000000e+00  1.7064516504431328e-03 4.5298981572973497e-03 0.0000000000000000e+00  6.4558836655136918e-03 1.4840718006900391e-02 0.0000000000000000e+00  -1.7595667112946527e-03 4.7380540952491603e-03 0.0000000000000000e+00  4.0213696505869085e-03 1.5121863545049326e-02 0.0000000000000000e+00  6.5749202391656542e-04 7.3349729771734909e-03 0.0000000000000000e+00  -3.9573891346256201e-03 1.5285083744918226e-02 0.0000000000000000e+00  -3.8610965141067893e-03 1.2016698526192957e-02 0.0000000000000000e+00  -6.2468548653871561e-04 7.4526362915326230e-03 0.0000000000000000e+00  -1.1582822923837492e-03 1.7120760596773710e-03 0.0000000000000000e+00  1.1050851832337713e-03 1.6918824426499285e-03 0.0000000000000000e+00  3.5047666786107261e-03 1.1607002574366046e-02 0.0000000000000000e+00  9.6284849317389426e-03 2.1522443301698026e-02 0.0000000000000000e+00  2.4557970648403640e-03 8.1829641399158177e-03 0.0000000000000000e+00  -4.1039193408178394e-03 6.4277194951900514e-03 0.0000000000000000e+00  -9.6030394691838470e-03 2.1487037609148052e-02 0.0000000000000000e+00  9.0837885481340145e-03 2.4489795918367349e-02 0.0000000000000000e+00  3.9955812697224273e-03 6.3134985838815254e-03 0.0000000000000000e+00  -2.5274494493422550e-03 8.3315675321092384e-03 0.0000000000000000e+00  -9.0447445379693344e-03 2.4489795918367353e-02 0.0000000000000000e+00  -2.4492421772652077e-05 7.0043708035233778e-04 0.0000000000000000e+00  4.5328987321164350e-05 1.4687593571223392e-02 0.0000000000000000e+00  4.9726207970778279e-03 1.5840478066288705e-02 0.0000000000000000e+00  -2.1064598179290303e-03 2.2321919573892938e-03 0.0000000000000000e+00  -6.5677379090507901e-05 1.0430757655142116e-02 0.0000000000000000e+00  -4.9528967533286989e-03 1.5746820887495887e-02 0.0000000000000000e+00  5.8726218594946702e-05 1.0296670566381593e-02 0.0000000000000000e+00  1.9960827710246007e-03 2.1920829768114118e-03 0.0000000000000000e+00  4.1620521276309573e-03 2.4489795918367346e-02 0.0000000000000000e+00  -4.0861166974199932e-03 2.4489795918367349e-02 0.0000000000000000e+00  -1.1579007827710378e-03 9.5067509109412231e-03 0.0000000000000000e+00  8.5292684422888666e-03 2.0068422909666511e-02 0.0000000000000000e+00  1.1428312417008310e-03 9.7886691299736792e-03 0.0000000000000000e+00  6.7693514698451184e-03 1.8360401911819337e-02 0.0000000000000000e+00  2.4584492758614024e-03 6.3571376418690879e-03 0.0000000000000000e+00  -2.5399022279480477e-03 6.4872685185411987e-03 0.0000000000000000e+00  -8.5717410625906765e-03 2.0228919671287642e-02 0.0000000000000000e+00  -1.1140411244657583e-03 2.0499576648765664e-03 0.0000000000000000e+00  -1.1354303692971276e-03 3.8875442522664050e-03 0.0000000000000000e+00  4.4820452837848442e-03 1.0100197925465338e-02 0.0000000000000000e+00  1.4704235950990211e-03 7.0201150699257097e-03 0.0000000000000000e+00  -4.4433379104871990e-03 1.0110586883717238e-02 0.0000000000000000e+00  -4.1004401253857360e-03 9.7610183342913496e-03 0.0000000000000000e+00  1.1188198626660224e-03 3.7966009429276923e-03 0.0000000000000000e+00  1.0573748708102469e-03 1.9268612571315580e-03 0.0000000000000000e+00  -1.4609797423797326e-03 7.2077285992036555e-03 0.0000000000000000e+00  -2.1111566104242887e-03 3.6317487251200874e-03 0.0000000000000000e+00  -7.3243735720437200e-03 1.9550305405691575e-02 0.0000000000000000e+00  -6.5949110453885108e-03 1.5826650007442187e-02 0.0000000000000000e+00  2.3189805799642346e-03 4.3325485894250507e-03 0.0000000000000000e+00  3.9302285732516892e-03 9.2311504932483003e-03 0.0000000000000000e+00  6.3126839511492699e-03 1.5521466443508714e-02 0.0000000000000000e+00  -2.0966834790537782e-03 8.2308921369620390e-03 0.0000000000000000e+00  1.1014168561815044e-03 6.9172964668748581e-03 0.0000000000000000e+00  -5.3627120805350807e-04 7.8523302213107029e-04 0.0000000000000000e+00  4.4261153769156015e-04 4.8611881797616351e-03 0.0000000000000000e+00  1.7517530546981336e-03 8.4473193833086123e-03 0.0000000000000000e+00  -1.8874949029409911e-03 7.3608342659401008e-03 0.0000000000000000e+00  4.9095321177487902e-04 7.5982138788174402e-04 0.0000000000000000e+00  -5.5064047883573476e-04 4.6130865068525380e-03 0.0000000000000000e+00  -5.7274179847162376e-03 2.0470276684557701e-02 0.0000000000000000e+00  -5.2659788566151869e-04 1.1981675396906600e-03 0.0000000000000000e+00  2.0579704187049992e-03 2.8720513324184131e-03 0.0000000000000000e+00  7.2122793176130967e-04 1.3692810362801843e-03 0.0000000000000000e+00  -3.0467504423518669e-03 1.2683118392183444e-02 0.0000000000000000e+00  -2.2315127066923888e-03 1.9498639309440194e-02 0.0000000000000000e+00  2.1858074177889615e-03 1.9795335310684944e-02 0.0000000000000000e+00  -8.2985516488798591e-03 1.8938061901013426e-02 0.0000000000000000e+00  -1.9912689542889964e-03 7.7054976283252386e-03 0.0000000000000000e+00  -2.9589022584889197e-03 5.1921139777755749e-03 0.0000000000000000e+00  1.9367357342489544e-03 7.5737866589982127e-03 0.0000000000000000e+00  8.1435589733720084e-03 2.1790014624456268e-02 0.0000000000000000e+00  8.4021471985446759e-03 1.9133106944050130e-02 0.0000000000000000e+00  9.5629528782995351e-03 2.2630270307078364e-02 0.0000000000000000e+00  3.4491625174757016e-03 1.4376638770998568e-02 0.0000000000000000e+00  -8.5973413081717753e-04 1.1461125820440215e-02 0.0000000000000000e+00  3.1752220819966470e-03 8.1567899973188310e-03 0.0000000000000000e+00  -4.1291102411732984e-03 7.4297829025762162e-03 0.0000000000000000e+00  -1.0046116283118691e-02 2.2971702265624710e-02 0.0000000000000000e+00  5.8477565647049208e-03 2.4489795918367349e-02 0.0000000000000000e+00  2.9347779362968746e-04 9.9910199595837391e-03 0.0000000000000000e+00  1.6092278230219876e-03 3.0481291180279564e-03 0.0000000000000000e+00  -5.8030059056505667e-03 1.5568278322324691e-02 0.0000000000000000e+00  8.4207278331657244e-04 8.5506318730342000e-03 0.0000000000000000e+00  -1.9601702509426063e-03 2.5849697313785574e-03 0.0000000000000000e+00  -6.4509381957676302e-03 1.7196256854483432e-02 0.0000000000000000e+00  -7.8155626297767879e-04 9.5192586188788189e-03 0.0000000000000000e+00  -5.7119684841953043e-04 6.3481904156742520e-03 0.0000000000000000e+00  2.1128844251406109e-03 6.8011969763952023e-03 0.0000000000000000e+00  -8.2688367189135271e-04 8.6115054592788513e-03 0.0000000000000000e+00  -3.1358253896076682e-04 9.6601606565025408e-03 0.0000000000000000e+00  -5.2179846038720792e-03 1.4817544736604557e-02 0.0000000000000000e+00  5.5077840840988546e-03 1.9724543290223565e-02 0.0000000000000000e+00  4.8490011210979567e-03 1.2404580729380624e-02 0.0000000000000000e+00  -1.9547579437474158e-03 6.3609254154299525e-03 0.0000000000000000e+00  2.8710905442190775e-03 1.2377540731069897e-02 0.0000000000000000e+00  7.4002064356182050e-03 1.7064587428110001e-02 0.0000000000000000e+00  -2.2410370350347945e-03 4.9991923460109763e-03 0.0000000000000000e+00  -8.2197382808775234e-03 2.4489795918367349e-02 0.0000000000000000e+00  2.9944257181755618e-03 5.5720228887678920e-03 0.0000000000000000e+00  -7.6219684260828476e-03 1.7577504192127807e-02 0.0000000000000000e+00  4.9947650791923740e-03 1.4558666441352336e-02 0.0000000000000000e+00  4.0221429103304476e-03 7.2973028210618820e-03 0.0000000000000000e+00  -3.2650050173516744e-03 8.3065996273723724e-03 0.0000000000000000e+00  -9.6834378281477340e-03 2.4489795918367353e-02 0.0000000000000000e+00  1.9034725068240986e-03 6.1377856950750329e-03 0.0000000000000000e+00  -1.4867783966085323e-03 2.5901094014498830e-03 0.0000000000000000e+00  1.2291067445529746e-03 5.9246290341832914e-03 0.0000000000000000e+00  -8.3883317930603454e-03 2.1789692564200446e-02 0.0000000000000000e+00  -1.2262531792666263e-03 6.0538821685414005e-03 0.0000000000000000e+00  -5.1163516203145539e-03 1.2858975013335086e-02 0.0000000000000000e+00  3.0483384412179912e-03 7.1700808910451471e-03 0.0000000000000000e+00  6.0310275306619627e-03 1.4544401793795479e-02 0.0000000000000000e+00  -3.2588405569917611e-03 6.9435979084479047e-03 0.0000000000000000e+00  -9.4227781772933759e-03 2.2336503020600473e-02 0.0000000000000000e+00  1.4506481316686931e-05 7.3886986168936117e-03 0.0000000000000000e+00  2.4314122928109977e-05 3.3586290296816907e-04 0.0000000000000000e+00  8.5435098264196186e-04 1.8037055128404336e-03 0.0000000000000000e+00  7.7174647875569644e-03 1.8987468967675065e-02 0.0000000000000000e+00  -5.6397167478378833e-04 9.9632536048995532e-04 0.0000000000000000e+00  5.1144736351080148e-04 9.8667368471944887e-04 0.0000000000000000e+00  -3.2515898761830055e-03 6.7583444151618644e-03 0.0000000000000000e+00  1.4572695873780112e-03 1.9587649058624063e-03 0.0000000000000000e+00  2.7410453517660027e-03 6.3987673826501890e-03 0.0000000000000000e+00  -1.3141552536419028e-03 1.7531109080048441e-03 0.0000000000000000e+00  -2.3546164826885718e-04 9.2913562332617872e-03 0.0000000000000000e+00  -8.3307704692037947e-04 1.8585268541932759e-03 0.0000000000000000e+00  -2.7044986106123342e-03 5.9622973937188285e-03 0.0000000000000000e+00  6.4713810953717114e-03 1.7276858131802630e-02 0.0000000000000000e+00  2.1684317049850354e-03 1.5014063887561760e-02 0.0000000000000000e+00  -2.0018353054459151e-03 1.3194885322902871e-02 0.0000000000000000e+00  3.7994453930054057e-05 1.9639067919557014e-02 0.0000000000000000e+00  -7.5925563668966288e-03 1.8222121711391516e-02 0.0000000000000000e+00  -1.6960314709129627e-03 1.1448270078755941e-02 0.0000000000000000e+00  -8.3284618991437643e-06 7.5804061984760087e-03 0.0000000000000000e+00  -2.4308101503342718e-03 1.0675135757314465e-02 0.0000000000000000e+00  2.1103190710414616e-03 5.1289871333814957e-03 0.0000000000000000e+00  7.6354863038899498e-04 9.3763348789750109e-03 0.0000000000000000e+00  8.6625497154476034e-04 1.1589041074617475e-02 0.0000000000000000e+00  8.8704366055187191e-03 2.0090707809277065e-02 0.0000000000000000e+00  -2.9362944957284230e-03 3.0914057439578205e-03 0.0000000000000000e+00  8.2684158441878840e-03 2.4489795918367349e-02 0.0000000000000000e+00  -3.9331280107282205e-03 5.3083215361034112e-03 0.0000000000000000e+00  -1.9172062488399745e-03 8.4959292591799303e-03 0.0000000000000000e+00  -8.8457207046560241e-03 2.0037770817466060e-02 0.0000000000000000e+00  2.1917261832248664e-03 2.4489795918367349e-02 0.0000000000000000e+00  -3.4313236094003718e-03 1.4270728708663831e-02 0.0000000000000000e+00  1.0080054394271259e-03 1.6552160322635145e-03 0.0000000000000000e+00  2.8242347558306616e-03 3.0276786273699726e-03 0.0000000000000000e+00  3.8250067582392792e-03 5.2096605867406011e-03 0.0000000000000000e+00  -5.7786818974073098e-03 2.4489795918367349e-02 0.0000000000000000e+00  -2.1056111749589209e-03 2.4489795918367349e-02 0.0000000000000000e+00  1.8620452861397602e-03 8.3474572936646611e-03 0.0000000000000000e+00  9.7190638986055355e-03 2.4489795918367346e-02 0.0000000000000000e+00  1.0075379535148051e-02 2.2991473926129154e-02 0.0000000000000000e+00  -1.1238821998734018e-03 1.6777201318003458e-03 0.0000000000000000e+00  8.9410934897393799e-03 2.2279602431433256e-02 0.0000000000000000e+00  7.1569774744275998e-04 2.7630818399033458e-03 0.0000000000000000e+00  -2.1715171955545729e-03 5.9949201376794554e-03 0.0000000000000000e+00  9.1251742174205553e-03 2.0840328228493212e-02 0.0000000000000000e+00  3.1665025520949660e-03 6.4793522004104424e-03 0.0000000000000000e+00  -5.9759953500563450e-04 8.6357888710301598e-04 0.0000000000000000e+00  -2.5359275368784105e-03 7.5345054496460933e-03 0.0000000000000000e+00  1.3296482205819265e-03 3.3052937626633209e-03 0.0000000000000000e+00  1.2585680891225647e-04 1.0063423547885851e-03 0.0000000000000000e+00  -3.5218773849578192e-03 1.0053711422320255e-02 0.0000000000000000e+00  -4.1163241206509764e-03 1.9505200047273078e-02 0.0000000000000000e+00  1.0164955014760806e-05 4.2963494088725631e-03 0.0000000000000000e+00  5.5007807932392150e-03 1.5684838394097962e-02 0.0000000000000000e+00  -6.6758802055936761e-03 1.6655732893512548e-02 0.0000000000000000e+00  -7.3060821569587739e-04 2.5913113811267810e-03 0.0000000000000000e+00  -9.0581169659275373e-03 2.0677484728771931e-02 0.0000000000000000e+00  6.8335000281795283e-03 2.1366598576114153e-02 0.0000000000000000e+00  -1.0074685734653822e-03 1.5725201341402035e-03 0.0000000000000000e+00  -4.9898546055054636e-03 1.1118766259704821e-02 0.0000000000000000e+00  3.4597319323698616e-03 1.0787488175717641e-02 0.0000000000000000e+00  6.0193679845375870e-04 9.2826766303593289e-04 0.0000000000000000e+00  -1.5298609311218347e-03 3.3226579839092931e-03 0.0000000000000000e+00  1.3637290710545511e-03 1.1296697825801876e-02 0.0000000000000000e+00  2.1468003596841635e-03 1.0302254248438390e-02 0.0000000000000000e+00  -1.2572369563652484e-03 3.0694634975559983e-03 0.0000000000000000e+00  5.2981697186399333e-03 1.1885228413264306e-02 0.0000000000000000e+00  -4.5010529696497400e-03 1.2591336545696398e-02 0.0000000000000000e+00  -1.4576374040367408e-03 4.7591419869862876e-03 0.0000000000000000e+00  1.1707961473861449e-03 1.9538758588190214e-03 0.0000000000000000e+00  8.9461633010600112e-04 5.3155231066647117e-03 0.0000000000000000e+00  2.4379131651001305e-03 7.4483756019102570e-03 0.0000000000000000e+00  3.9363546183673014e-03 1.9041518843550834e-02 0.0000000000000000e+00  1.5638035818959159e-03 5.5931395611556294e-03 0.0000000000000000e+00  1.4962000336834838e-03 7.9698690733731523e-03 0.0000000000000000e+00  -1.5329807604403313e-03 8.0988856570539183e-03 0.0000000000000000e+00  -8.9377954390053543e-04 5.5561319589642454e-03 0.0000000000000000e+00  -6.5652237482380490e-03 1.5251668979698018e-02 0.0000000000000000e+00  6.8160351205981606e-03 1.6931668271193318e-02 0.0000000000000000e+00  6.2583150824188213e-03 1.4739686843846182e-02 0.0000000000000000e+00  -2.5869423901730207e-03 3.5928054621430466e-03 0.0000000000000000e+00  -5.8422383099356184e-03 1.3771205339850354e-02 0.0000000000000000e+00  -1.7186198082806551e-04 4.5574624286493113e-03 0.0000000000000000e+00  2.9465695564537425e-03 4.5646656554479042e-03 0.0000000000000000e+00  -1.4047494963135754e-05 1.2248091932412577e-03 0.0000000000000000e+00  -6.7651213789400415e-03 1.6841721827226857e-02 0.0000000000000000e+00  -5.4959957417673039e-03 1.2739290179395145e-02 0.0000000000000000e+00  5.3255783530954479e-03 1.2399014438753598e-02 0.0000000000000000e+00  -7.6563388649870936e-03 2.2258938034279346e-02 0.0000000000000000e+00  2.1977809122657398e-03 5.4287867048851950e-03 0.0000000000000000e+00  7.4390011072245693e-03 1.7425617263313292e-02 0.0000000000000000e+00  5.0470725062597673e-03 1.3694827511867274e-02 0.0000000000000000e+00  -1.6411635273981169e-03 5.949413283377359