<?xml version="1.0"?>
<VTKFile type="UnstructuredGrid"  version="0.1"  >
<UnstructuredGrid>
<Piece  NumberOfPoints="5173" NumberOfCells="9966">
<Points>
<DataArray  type="Float64"  NumberOfComponents="3"  format="ascii">-0.5 0.5 0  -0.5 -0.5 0  0.5 -0.5 0  0.5 0.5 0  0.1998669600420274 0.02125869712947308 0  0.201 0 0  0.1998669600420274 -0.02125869712947312 0  0.1964806779635733 -0.04227652472592507 0  0.1908795216936763 -0.06281534240438978 0  0.1831269545709826 -0.08264243715367564 0  0.1733108162787611 -0.1015331600677681 0  0.1615423275861927 -0.1192734717077003 0  0.1479548301726135 -0.1356623672539232 0  0.1327022758130076 -0.1505141539712278 0  0.1159574820428814 -0.1636605551816338 0  0.09791017406652992 -0.1749526169063923 0  0.07876483509466403 -0.1842623955740826 0  0.05873838946792427 -0.1914844076724011 0  0.03805774481742277 -0.1965368249185042 0  0.01695722111061653 -0.1993624014061501 0  -0.004324104287555032 -0.1999291222246905 0  -0.02554510545674447 -0.1982305662008014 0  -0.04646533997422303 -0.194285978652942 0  -0.06684777322360611 -0.1881400533342067 0  -0.08646146409177112 -0.1798624260342438 0  -0.1050841816239485 -0.1695468855779342 0  -0.1225049229892384 -0.1573103111605285 0  -0.138526304226997 -0.143291348059663 0  -0.1529667966859812 -0.127648836728964 0  -0.165662783816503 -0.1105600130722386 0  -0.1764704150113143 -0.0922185002898652 0  -0.1852672354904677 -0.07283211505056446 0  -0.1919535737629032 -0.05262051284550421 0  -0.1964536709442689 -0.03181269920381437 0  -0.1987165391353524 -0.0106444349684357 0  -0.1987165391353524 0.01064443496843575 0  -0.1964536709442689 0.03181269920381442 0  -0.1919535737629032 0.05262051284550433 0  -0.1852672354904677 0.07283211505056443 0  -0.1764704150113143 0.09221850028986515 0  -0.165662783816503 0.1105600130722387 0  -0.1529667966859812 0.1276488367289641 0  -0.1385263042269969 0.1432913480596631 0  -0.1225049229892383 0.1573103111605285 0  -0.1050841816239485 0.1695468855779342 0  -0.08646146409177108 0.1798624260342438 0  -0.06684777322360606 0.1881400533342067 0  -0.04646533997422297 0.194285978652942 0  -0.02554510545674437 0.1982305662008015 0  -0.004324104287554939 0.1999291222246905 0  0.01695722111061662 0.19936240140615 0  0.03805774481742286 0.1965368249185042 0  0.05873838946792424 0.1914844076724011 0  0.07876483509466414 0.1842623955740826 0  0.09791017406653006 0.1749526169063922 0  0.1159574820428814 0.1636605551816338 0  0.1327022758130078 0.1505141539712277 0  0.1479548301726135 0.1356623672539232 0  0.1615423275861927 0.1192734717077003 0  0.1733108162787612 0.101533160067768 0  0.1831269545709827 0.08264243715367564 0  0.1908795216936763 0.06281534240438975 0  0.1964806779635734 0.04227652472592486 0  0 -0.5 0  0 0.5 0  -0.5 0 0  0.5 0 0  0.25 -0.5 0  0.25 0.5 0  0.5 0.25 0  0.5 -0.25 0  -0.25 0.5 0  -0.25 -0.5 0  -0.5 -0.25 0  -0.5 0.25 0  0.2918258229480683 0.2918258229480682 0  0.2865867850624828 -0.2932931940421196 0  -0.2962949893701896 0.274449924397287 0  -0.2913160373738303 -0.2913160373738304 0  -0.125 0.3636995408959175 0  0.3637738468862107 -0.1261303957107176 0  0.125 0.3665964626830409 0  0.3640958654762797 0.1232161970438493 0  -0.3624000654276585 -0.1218337159209422 0  -0.125 -0.3668200952157802 0  0.125 -0.3712838880907947 0  -0.3600991828528437 0.1089843577122111 0  -0.5 0.375 0  0.5 -0.375 0  -0.375 -0.5 0  0.5 0.375 0  -0.375 0.5 0  0.375 -0.5 0  -0.5 -0.375 0  0.375 0.5 0  0.0006860903712339345 -0.3306266888645853 0  -0.000109901520948898 0.3746323380112415 0  -0.5 0.125 0  -0.125 -0.5 0  -0.5 -0.125 0  0.5 0.125 0  0.5 -0.125 0  0.125 -0.5 0  -0.125 0.5 0  0.125 0.5 0  0.3748576787807123 -0.001471205609738957 0  -0.3738828512115154 0.3738828512115154 0  -0.3827617049088436 -0.006210238480157219 0  -0.2429234745416257 0.3810213699917807 0  0.3769180353829246 -0.3769180353829246 0  -0.3777687524152424 -0.3777687524152424 0  0.3780704009792175 0.3780704009792175 0  -0.1776483227107271 -0.2618630460446135 0  -0.2604485542051718 -0.1787215021996984 0  -0.1798547561877991 0.2599748505350166 0  0.3864703130478905 -0.2380123189195306 0  0.1785319646943122 0.2625417448451246 0  0.261692611046212 0.1791168901036931 0  0.2607171500730768 -0.1799460669666111 0  0.1733970740599892 -0.2651674952354912 0  -0.3880520258539732 -0.2322407641539351 0  -0.2352016482221373 -0.388638232840279 0  0.2734696242623063 0.3964265996649794 0  0.3883795026617865 0.233417864889234 0  0.2738670858792859 -0.3976331321261044 0  -0.2491638954018168 0.1780101911767213 0  -0.3926686215746083 0.2165776265637375 0  0.07109213498061834 0.2869023807262104 0  -0.2934183534017453 0.03147305416145122 0  -0.08119265072200343 -0.2826195781877594 0  0.2836913223256923 -0.07709296110799269 0  -0.0558729689268372 0.2928347535333279 0  0.2830965643121598 0.07693076420704528 0  0.08122371629649494 -0.2825469282280794 0  -0.2767834230915197 -0.08819590430941976 0  0.1875 0.4332982313415205 0  -0.04303186331845871 -0.4151376431551652 0  0.190970733019215 -0.4322714131851434 0  0.06249999999999999 -0.4356419440453974 0  0.4328061849987423 0.06633847947711793 0  0.0664712649494027 0.4332982313415205 0  -0.06249999999999998 0.4373709104419552 0  0.4341377633941729 0.309372588857957 0  -0.4374372828954266 -0.3125 0  -0.3104572497507675 -0.4353019888851174 0  0.4374701104890421 -0.3125 0  -0.3116291712721947 0.4366347031852421 0  -0.4374901042687089 0.3125 0  -0.4363926600558238 0.4363926600558238 0  -0.5 0.0625 0  0.5 -0.0625 0  0.5 -0.4375 0  -0.4375 -0.5 0  0.5 0.4375 0  -0.1875 0.5 0  -0.4323246583268963 -0.07454303397230311 0  0.2154950463309389 -0.3375719358844427 0  0.206977802238796 0.342973363124546 0  0.4322596267199844 -0.1704803839098939 0  -0.1690769129391571 -0.4334100476078901 0  0.5 0.1875 0  -0.5 -0.1875 0  0.2967149326504868 -2.965984816150069e-05 0  -0.2579082457853068 0.1006999711688991 0  -0.4261732609354634 -0.1652001701086123 0  0.4197274728231854 -0.06828306080156128 0  0.4316260558094222 0.15625 0  -0.1765935890523967 0.4225213035878151 0  -0.326101012911042 0.1780020696215199 0  -0.3639018823524438 -0.3051829074366289 0  -0.4219359613016062 0.06132313683084987 0  -0.368871881750981 0.2861301036496543 0  -0.3031928482819811 -0.3630024307590357 0  0.3125 0.5 0  0.3355547846059301 -0.437829382399898 0  0.3620936304880762 0.3078025934392096 0  -0.4265460575686851 0.1475964618934338 0  0.4375 -0.5 0  -0.5 -0.4375 0  0.4375 0.5 0  0.3587983613906559 -0.3058906763528768 0  -0.1889171018677358 -0.3331988582480375 0  0.3319769361362775 -0.1908238194547704 0  0.3337713745363715 0.4328433800405805 0  -0.3319644446835826 -0.1870886352472088 0  0.3329253892881625 0.1878611701133833 0  0.4281511341447153 -0.4281511341447153 0  -0.232840147849867 0.3093215053326949 0  -0.40625 -0.4395608850352885 0  0.428794887401249 0.428794887401249 0  -0.3380841551254475 -0.05794700007688498 0  0.008054260670409629 -0.2648994211243904 0  0.1899220001124564 -0.1947534447033338 0  -0.3080416507322476 0.3708200057439822 0  -0.06307278823153059 -0.3455430469652901 0  0.06447087227249242 -0.3459780260685607 0  0.1914876772934198 0.1922953616824615 0  0.1267822167193652 -0.4357424153550361 0  -0.1100367963981227 0.2468729543145758 0  -0.1040301628609493 -0.4382371732506554 0  0.008496887133013969 0.3088587185741126 0  -0.1939711685411953 -0.1799889819170536 0  0.1169089524024441 0.2383640108781663 0  -0.5 0.1875 0  -0.06301873836730842 0.3744639870876723 0  0.0612272731888486 0.3516549422231338 0  0.0001842875295821901 0.4373159592812666 0  0.315570863666392 0.3499038328432952 0  0.43737589643705 0.003767781375474147 0  0.3480437072584214 -0.06190943679164183 0  0.3704548124556613 0.06095691071954262 0  0.3139725644615085 -0.3495769689516506 0  0.5 -0.1875 0  -0.5 -0.0625 0  -0.5 0.3125 0  -0.1875 -0.5 0  -0.3125 0.5 0  -0.3125 -0.5 0  -0.5 -0.3125 0  0.5 0.3125 0  -0.0625 0.5 0  0.5 0.0625 0  0.0625 -0.5 0  0.1875 -0.5 0  0.3125 -0.5 0  0.1875 0.5 0  0.0625 0.5 0  0.5 -0.3125 0  -0.4375 0.5 0  -0.5 0.4375 0  -0.0625 -0.5 0  -0.3740130545720807 0.4376162026208867 0  0.2356432480937504 -0.1203529309141897 0  0.2354253261260549 0.120280228505195 0  -0.4358389466402443 0.374436564627095 0  -0.1837098359759774 0.1929485386776155 0  -0.1210077767998366 -0.2331474219302516 0  -0.4388230181844467 -0.3736756227341544 0  0.2385916116983025 -0.2446215854929363 0  0.01618154697154811 -0.392205807603664 0  0.3033224724982568 0.1345019962362828 0  0.1269856324747013 0.4273682536406486 0  -0.2618767198442009 -0.02513308225372456 0  -0.1869024341550137 0.3523407916866587 0  0.4460792014197047 0.2150519456240759 0  -0.228067921023645 -0.1261420173261541 0  0.4375111104956734 0.3693541778847931 0  -0.2344434115929863 0.441225502334267 0  -0.1349409233725989 -0.3081519167298867 0  0.2361921270004774 0.236858231392783 0  -0.1134625589296566 0.3058057213872041 0  0.1364902237265291 -0.2193600350069504 0  -0.231009496195906 -0.2899916451544192 0  -0.4420301468408164 -0.0153626464053197 0  -0.3638407636123014 0.04989392276612995 0  -0.2281634567999949 -0.2293698735254731 0  -0.2404608239114909 0.2480193450766527 0  0.1548586079872366 0.3161601351946364 0  -0.2905808065687782 -0.2309892133488608 0  0.1583090638615736 -0.3223807786382032 0  0.3037640590628244 -0.1367963242859415 0  0.441474411355182 -0.3710236808063671 0  -0.1184457037417267 0.4214861255011078 0  0.3280783743867655 -0.2503846686276005 0  0.4421147536667354 -0.254616967737483 0  -0.4419160956032748 -0.2544205585064326 0  -0.3074463395544132 -0.1359279022829991 0  0.3366964226424555 0.256991018383815 0  -0.4508616135570574 0.21875 0  -0.3395120610056381 0.2372377549435862 0  -0.2261617732606898 -0.4465036260914809 0  0.2350726063974556 0.2936290504086719 0  0.007756726855498133 0.253726523067807 0  0.2816091581197124 -0.4531847002458751 0  0.002693579241951911 -0.4452927028974097 0  0.2614770372227774 0.3432624384800261 0  0.2905620892368345 0.2263682042801985 0  -0.2876366597373845 0.2178464403043631 0  0.2807413030307
[...]
<PointData  Vectors="f_44"> 
<DataArray  type="Float64"  Name="f_44"  NumberOfComponents="3" format="ascii">2.4750218504191953e-02 1.1020408163265308e-01 0.0000000000000000e+00  -1.7476695583320930e-02 3.5369067043902781e-02 0.0000000000000000e+00  1.7400521492925720e-02 3.5246958045950787e-02 0.0000000000000000e+00  -2.2465327607062359e-02 1.1020408163265308e-01 0.0000000000000000e+00  0.0000000000000000e+00 0.0000000000000000e+00 0.0000000000000000e+00  0.0000000000000000e+00 0.0000000000000000e+00 0.0000000000000000e+00  0.0000000000000000e+00 0.0000000000000000e+00 0.0000000000000000e+00  0.0000000000000000e+00 0.0000000000000000e+00 0.0000000000000000e+00  0.0000000000000000e+00 0.0000000000000000e+00 0.0000000000000000e+00  0.0000000000000000e+00 0.0000000000000000e+00 0.0000000000000000e+00  0.0000000000000000e+00 0.0000000000000000e+00 0.0000000000000000e+00  0.0000000000000000e+00 0.0000000000000000e+00 0.0000000000000000e+00  0.0000000000000000e+00 0.0000000000000000e+00 0.0000000000000000e+00  0.0000000000000000e+00 0.0000000000000000e+00 0.0000000000000000e+00  0.0000000000000000e+00 0.0000000000000000e+00 0.0000000000000000e+00  0.0000000000000000e+00 0.0000000000000000e+00 0.0000000000000000e+00  0.0000000000000000e+00 0.0000000000000000e+00 0.0000000000000000e+00  0.0000000000000000e+00 0.0000000000000000e+00 0.0000000000000000e+00  0.0000000000000000e+00 0.0000000000000000e+00 0.0000000000000000e+00  0.0000000000000000e+00 0.0000000000000000e+00 0.0000000000000000e+00  0.0000000000000000e+00 0.0000000000000000e+00 0.0000000000000000e+00  0.0000000000000000e+00 0.0000000000000000e+00 0.0000000000000000e+00  0.0000000000000000e+00 0.0000000000000000e+00 0.0000000000000000e+00  0.0000000000000000e+00 0.0000000000000000e+00 0.0000000000000000e+00  0.0000000000000000e+00 0.0000000000000000e+00 0.0000000000000000e+00  0.0000000000000000e+00 0.0000000000000000e+00 0.0000000000000000e+00  0.0000000000000000e+00 0.0000000000000000e+00 0.0000000000000000e+00  0.0000000000000000e+00 0.0000000000000000e+00 0.0000000000000000e+00  0.0000000000000000e+00 0.0000000000000000e+00 0.0000000000000000e+00  0.0000000000000000e+00 0.0000000000000000e+00 0.0000000000000000e+00  0.0000000000000000e+00 0.0000000000000000e+00 0.0000000000000000e+00  0.0000000000000000e+00 0.0000000000000000e+00 0.0000000000000000e+00  0.0000000000000000e+00 0.0000000000000000e+00 0.0000000000000000e+00  0.0000000000000000e+00 0.0000000000000000e+00 0.0000000000000000e+00  0.0000000000000000e+00 0.0000000000000000e+00 0.0000000000000000e+00  0.0000000000000000e+00 0.0000000000000000e+00 0.0000000000000000e+00  0.0000000000000000e+00 0.0000000000000000e+00 0.0000000000000000e+00  0.0000000000000000e+00 0.0000000000000000e+00 0.0000000000000000e+00  0.0000000000000000e+00 0.0000000000000000e+00 0.0000000000000000e+00  0.0000000000000000e+00 0.0000000000000000e+00 0.0000000000000000e+00  0.0000000000000000e+00 0.0000000000000000e+00 0.0000000000000000e+00  0.0000000000000000e+00 0.0000000000000000e+00 0.0000000000000000e+00  0.0000000000000000e+00 0.0000000000000000e+00 0.0000000000000000e+00  0.0000000000000000e+00 0.0000000000000000e+00 0.0000000000000000e+00  0.0000000000000000e+00 0.0000000000000000e+00 0.0000000000000000e+00  0.0000000000000000e+00 0.0000000000000000e+00 0.0000000000000000e+00  0.0000000000000000e+00 0.0000000000000000e+00 0.0000000000000000e+00  0.0000000000000000e+00 0.0000000000000000e+00 0.0000000000000000e+00  0.0000000000000000e+00 0.0000000000000000e+00 0.0000000000000000e+00  0.0000000000000000e+00 0.0000000000000000e+00 0.0000000000000000e+00  0.0000000000000000e+00 0.0000000000000000e+00 0.0000000000000000e+00  0.0000000000000000e+00 0.0000000000000000e+00 0.0000000000000000e+00  0.0000000000000000e+00 0.0000000000000000e+00 0.0000000000000000e+00  0.0000000000000000e+00 0.0000000000000000e+00 0.0000000000000000e+00  0.0000000000000000e+00 0.0000000000000000e+00 0.0000000000000000e+00  0.0000000000000000e+00 0.0000000000000000e+00 0.0000000000000000e+00  0.0000000000000000e+00 0.0000000000000000e+00 0.0000000000000000e+00  0.0000000000000000e+00 0.0000000000000000e+00 0.0000000000000000e+00  0.0000000000000000e+00 0.0000000000000000e+00 0.0000000000000000e+00  0.0000000000000000e+00 0.0000000000000000e+00 0.0000000000000000e+00  0.0000000000000000e+00 0.0000000000000000e+00 0.0000000000000000e+00  0.0000000000000000e+00 0.0000000000000000e+00 0.0000000000000000e+00  0.0000000000000000e+00 0.0000000000000000e+00 0.0000000000000000e+00  -8.8849095555183397e-05 6.3812708382526180e-03 0.0000000000000000e+00  9.6536583112043065e-04 1.1020408163265308e-01 0.0000000000000000e+00  8.2126029692558243e-03 5.5280264765444648e-02 0.0000000000000000e+00  -8.5208678535996264e-03 5.5304555846012453e-02 0.0000000000000000e+00  1.4955699325350579e-02 1.7624138652669558e-02 0.0000000000000000e+00  -6.7691758132987952e-03 1.1020408163265308e-01 0.0000000000000000e+00  -2.8935324460831729e-02 7.6887099670637421e-02 0.0000000000000000e+00  5.8661369939023017e-03 3.7661497390483009e-02 0.0000000000000000e+00  8.6624336246533366e-03 1.1020408163265309e-01 0.0000000000000000e+00  -1.5078489910149937e-02 1.7754192264249347e-02 0.0000000000000000e+00  -5.9376000741387745e-03 3.7749296540356546e-02 0.0000000000000000e+00  2.9732135944658691e-02 7.7684063886575477e-02 0.0000000000000000e+00  -2.2240758019162470e-02 7.6393148729084773e-02 0.0000000000000000e+00  7.4614423824493287e-03 1.9588242929544461e-02 0.0000000000000000e+00  2.5872104324613319e-02 7.0969855739746027e-02 0.0000000000000000e+00  -7.5419515674296630e-03 2.0233076459030979e-02 0.0000000000000000e+00  7.0321385375957590e-03 1.0667643947472903e-01 0.0000000000000000e+00  3.0333100689722342e-03 3.1665876924827523e-02 0.0000000000000000e+00  -5.0413092938136035e-03 1.0639643126675577e-01 0.0000000000000000e+00  -1.6057470400471695e-02 5.3314571125731125e-02 0.0000000000000000e+00  -2.9648696553085637e-03 3.1788850201066830e-02 0.0000000000000000e+00  -4.8898503128578302e-03 7.3403998943604156e-03 0.0000000000000000e+00  4.8663446210715239e-03 7.3367140690819201e-03 0.0000000000000000e+00  1.3840419581223456e-02 5.0546206334454176e-02 0.0000000000000000e+00  2.7892517035406655e-02 9.0403872375231967e-02 0.0000000000000000e+00  1.0696145153075490e-02 3.5313041934411878e-02 0.0000000000000000e+00  -1.7414560854253889e-02 2.7394953425911042e-02 0.0000000000000000e+00  -2.5839434832996954e-02 8.9987770708695750e-02 0.0000000000000000e+00  1.7734096417723458e-02 1.1020408163265308e-01 0.0000000000000000e+00  1.7327475036484349e-02 2.7269366186293588e-02 0.0000000000000000e+00  -1.0766688898413489e-02 3.5432548454417991e-02 0.0000000000000000e+00  -1.5502919042285278e-02 1.1020408163265308e-01 0.0000000000000000e+00  -2.7615613293283975e-05 3.0295338551353918e-03 0.0000000000000000e+00  8.4536078454818366e-04 1.0964788236369577e-01 0.0000000000000000e+00  2.0669497224518281e-02 6.7575558212748355e-02 0.0000000000000000e+00  -8.8838663371521350e-03 9.5711060575501255e-03 0.0000000000000000e+00  -5.8359910608200610e-04 4.4404328319789382e-02 0.0000000000000000e+00  -2.0981165400906648e-02 6.7258703675958653e-02 0.0000000000000000e+00  4.5463731670146267e-04 4.4408391448631165e-02 0.0000000000000000e+00  8.7392797991722986e-03 9.4913574161438023e-03 0.0000000000000000e+00  3.1415376842783040e-03 1.1020408163265306e-01 0.0000000000000000e+00  -1.2673144387933906e-03 1.1020408163265309e-01 0.0000000000000000e+00  -4.5591919196570022e-03 4.1167038214881949e-02 0.0000000000000000e+00  2.1986617606876886e-02 8.9902280337845336e-02 0.0000000000000000e+00  4.2006826937411833e-03 4.1871482725483432e-02 0.0000000000000000e+00  1.1838602431545636e-02 9.5913891792148057e-02 0.0000000000000000e+00  1.0706245596413148e-02 2.7458430829570026e-02 0.0000000000000000e+00  -1.0815752084312897e-02 2.7650112559010814e-02 0.0000000000000000e+00  -1.9802786737127161e-02 9.0908317888620180e-02 0.0000000000000000e+00  -4.7739996633384754e-03 8.7771790050368472e-03 0.0000000000000000e+00  -4.9555113240765643e-03 1.6607145318526875e-02 0.0000000000000000e+00  2.2026238466723979e-02 2.6484950692408291e-02 0.0000000000000000e+00  6.4685115806435035e-03 3.0313399888417105e-02 0.0000000000000000e+00  -1.8593777174656590e-02 8.5545649513708522e-02 0.0000000000000000e+00  -1.6760449356515723e-02 4.1610232787526957e-02 0.0000000000000000e+00  4.9271020662457737e-03 1.6414309080035369e-02 0.0000000000000000e+00  4.6377712057924826e-03 8.3528731440765114e-03 0.0000000000000000e+00  -6.3506620051256117e-03 3.0730211350976151e-02 0.0000000000000000e+00  -8.9672197964856138e-03 1.5523053486685682e-02 0.0000000000000000e+00  -1.1122964137046826e-02 9.6047110050068898e-02 0.0000000000000000e+00  -2.5949838838606805e-02 7.0358425009022757e-02 0.0000000000000000e+00  1.0105306496710625e-02 1.8737568029839221e-02 0.0000000000000000e+00  1.4534561932917481e-02 3.6368537706703834e-02 0.0000000000000000e+00  2.5630182040019552e-02 6.8438612009052199e-02 0.0000000000000000e+00  -7.1089617359407055e-03 1.0466588086011790e-01 0.0000000000000000e+00  3.6589659207758789e-03 2.9071132134024236e-02 0.0000000000000000e+00  -2.2673598895952087e-03 3.3720014456305068e-03 0.0000000000000000e+00  2.1113828098192709e-03 2.0936678219086392e-02 0.0000000000000000e+00  4.4640127783953437e-03 1.0236537174568386e-01 0.0000000000000000e+00  -6.6567911680553886e-03 3.1265942704107437e-02 0.0000000000000000e+00  2.1807433114612749e-03 3.3002911515563672e-03 0.0000000000000000e+00  -2.5910749219789750e-03 1.9625419599853703e-02 0.0000000000000000e+00  -4.2966586405386873e-03 1.0541795999833338e-01 0.0000000000000000e+00  -2.1435472897724135e-03 5.1613440659398239e-03 0.0000000000000000e+00  8.9865727738226084e-03 1.2435696814456896e-02 0.0000000000000000e+00  3.2340704139413186e-03 5.9320115661312747e-03 0.0000000000000000e+00  -1.2906559394198042e-02 5.4982840117525758e-02 0.0000000000000000e+00  -6.1546465133431876e-04 1.0961094090379617e-01 0.0000000000000000e+00  2.3303281464334578e-03 1.0979458354386611e-01 0.0000000000000000e+00  -2.6213938260931057e-02 8.1968713006197333e-02 0.0000000000000000e+00  -8.5284186562342417e-03 3.2809495402832116e-02 0.0000000000000000e+00  -1.2565609539720135e-02 2.2157053999537199e-02 0.0000000000000000e+00  8.4639568894409982e-03 3.2692708579956327e-02 0.0000000000000000e+00  1.4235993495053278e-02 1.0047321472029765e-01 0.0000000000000000e+00  2.7851131559059307e-02 8.2620347636195385e-02 0.0000000000000000e+00  2.2580385876587054e-02 1.0022646112727884e-01 0.0000000000000000e+00  1.4195415562723126e-02 6.1538261067131887e-02 0.0000000000000000e+00  -3.4652509921515224e-03 4.9451135773691111e-02 0.0000000000000000e+00  1.3793367743684670e-02 3.5202672165624345e-02 0.0000000000000000e+00  -1.7518589218080999e-02 3.1630726358005214e-02 0.0000000000000000e+00  -2.3429204248199009e-02 9.9548256777017230e-02 0.0000000000000000e+00  5.2144805950236255e-03 1.1020408163265308e-01 0.0000000000000000e+00  8.1892431855902384e-04 4.2652194215662312e-02 0.0000000000000000e+00  7.0377437917105625e-03 1.3197583411048366e-02 0.0000000000000000e+00  -1.0756969919146321e-02 9.6317022006210243e-02 0.0000000000000000e+00  3.7999534925185013e-03 3.6903639978005595e-02 0.0000000000000000e+00  -8.2893237511402918e-03 1.1066971014085209e-02 0.0000000000000000e+00  -2.6320744319919660e-02 7.2256503119972004e-02 0.0000000000000000e+00  -3.5229759401374998e-03 4.0489239456134571e-02 0.0000000000000000e+00  -1.8975567768155586e-03 2.7217434815594244e-02 0.0000000000000000e+00  6.7434069980886668e-03 2.7254711117006374e-02 0.0000000000000000e+00  -3.7584725738023924e-03 3.6709090089726823e-02 0.0000000000000000e+00  -1.0909835244996193e-03 4.1717525800970635e-02 0.0000000000000000e+00  -2.2002313020939732e-02 6.4410997196695519e-02 0.0000000000000000e+00  6.0176614026748237e-03 1.0544137309075306e-01 0.0000000000000000e+00  1.9836392684760954e-02 5.5437903117453786e-02 0.0000000000000000e+00  -8.3751318584152669e-03 2.7124224585908824e-02 0.0000000000000000e+00  1.1598178918794595e-02 5.3242877166514352e-02 0.0000000000000000e+00  2.6611560247140384e-02 7.6190124689369670e-02 0.0000000000000000e+00  -9.5456592961324256e-03 2.1338969686849764e-02 0.0000000000000000e+00  -1.1109116785330470e-02 1.1020408163265306e-01 0.0000000000000000e+00  1.3016496666347171e-02 2.4077592405800315e-02 0.0000000000000000e+00  -2.3694593409254356e-02 7.9495397457843217e-02 0.0000000000000000e+00  2.0718077783195059e-02 6.3054170841536583e-02 0.0000000000000000e+00  1.7439641102803098e-02 3.1503703934579873e-02 0.0000000000000000e+00  -1.3871496501880012e-02 3.5329769137079838e-02 0.0000000000000000e+00  -1.9254150679803708e-02 1.1020408163265309e-01 0.0000000000000000e+00  8.3177368482057912e-03 2.6514915748378411e-02 0.0000000000000000e+00  -6.3268845299585628e-03 1.1083753418618229e-02 0.0000000000000000e+00  5.4349631241574813e-03 2.5591658040549647e-02 0.0000000000000000e+00  -1.3944366650148646e-02 9.9812495018384351e-02 0.0000000000000000e+00  -5.3895918975245486e-03 2.5833043769916013e-02 0.0000000000000000e+00  -2.1865541407257251e-02 5.8778133104222724e-02 0.0000000000000000e+00  1.3246947975338721e-02 3.0956395822040416e-02 0.0000000000000000e+00  1.8915114562637295e-02 8.5951138961497656e-02 0.0000000000000000e+00  -1.3843875614038352e-02 2.9577526823167718e-02 0.0000000000000000e+00  -2.0174490600104181e-02 9.9035762175258377e-02 0.0000000000000000e+00  -4.0962687511705826e-04 3.1476136270059595e-02 0.0000000000000000e+00  1.4618900806798144e-04 1.4541573472873009e-03 0.0000000000000000e+00  3.7483455294357692e-03 7.8157489342697700e-03 0.0000000000000000e+00  1.7677596962488877e-02 8.9653125424713945e-02 0.0000000000000000e+00  -2.3458114665231050e-03 4.2855263895581544e-03 0.0000000000000000e+00  2.2948446629945767e-03 4.2809873339046374e-03 0.0000000000000000e+00  -1.1660609886473168e-02 1.6974290112928069e-02 0.0000000000000000e+00  6.4018543427042489e-03 8.4880665955937417e-03 0.0000000000000000e+00  8.5336417239612883e-03 3.9743374545844002e-03 0.0000000000000000e+00  -5.5145793812209952e-03 7.5238686315953771e-03 0.0000000000000000e+00  -3.0468221261937016e-04 1.0782140455560091e-01 0.0000000000000000e+00  -3.6115328074367821e-03 7.9575024960113153e-03 0.0000000000000000e+00  -6.8152318464419388e-03 3.8858411346255443e-03 0.0000000000000000e+00  2.6401358869634781e-02 7.2879469300948851e-02 0.0000000000000000e+00  3.7645257644553080e-03 1.0914950696863496e-01 0.0000000000000000e+00  -2.8039679364879823e-03 1.0865394827159404e-01 0.0000000000000000e+00  9.3864063233627516e-04 1.1012526344989075e-01 0.0000000000000000e+00  -1.7737525127039511e-02 8.6429074580768733e-02 0.0000000000000000e+00  -7.0367375626905117e-03 4.9497092943811910e-02 0.0000000000000000e+00  2.6856075960472704e-04 3.2718724780627220e-02 0.0000000000000000e+00  -9.8885569869169732e-03 4.6599120058869230e-02 0.0000000000000000e+00  9.2046983031190462e-03 2.2170280925710325e-02 0.0000000000000000e+00  3.4518044849978263e-03 4.0436342390855917e-02 0.0000000000000000e+00  3.2659469881923826e-03 4.9420296829475484e-02 0.0000000000000000e+00  2.9901708069010373e-02 8.3120657075346299e-02 0.0000000000000000e+00  -1.2436871449024264e-02 1.3228522497601264e-02 0.0000000000000000e+00  1.3174116183785887e-02 1.1020408163265308e-01 0.0000000000000000e+00  -1.6690702979073588e-02 2.2651278492578652e-02 0.0000000000000000e+00  -8.2134015738267938e-03 3.6127092390128644e-02 0.0000000000000000e+00  -2.8350143457070858e-02 8.2421596166167788e-02 0.0000000000000000e+00  1.9069021487058539e-03 1.1020408163265309e-01 0.0000000000000000e+00  -1.4584690810986218e-02 6.1452509045217950e-02 0.0000000000000000e+00  4.4905150394000982e-03 7.1620966596891190e-03 0.0000000000000000e+00  1.2299758892784807e-02 1.3104066292384827e-02 0.0000000000000000e+00  1.6597426947797689e-02 2.2515512824050794e-02 0.0000000000000000e+00  -3.3909611826013651e-03 1.1020408163265309e-01 0.0000000000000000e+00  6.1778851817348605e-06 1.1020408163265308e-01 0.0000000000000000e+00  8.1437184403470690e-03 3.6016053204127811e-02 0.0000000000000000e+00  2.1555062568615141e-02 1.1020408163265308e-01 0.0000000000000000e+00  2.5668626547427582e-02 9.9704262166168969e-02 0.0000000000000000e+00  -4.6695797430972930e-03 7.2148988633159144e-03 0.0000000000000000e+00  1.8797791190502983e-02 1.0020655759968458e-01 0.0000000000000000e+00  3.1732047711386605e-03 1.1935566106062147e-02 0.0000000000000000e+00  -6.9324186055248265e-03 2.2813552008529459e-02 0.0000000000000000e+00  2.5185985783592730e-02 9.0947534543669176e-02 0.0000000000000000e+00  1.0428474194759002e-02 1.4899612605050794e-02 0.0000000000000000e+00  -2.5619790918773675e-03 3.7029958570094952e-03 0.0000000000000000e+00  -1.0802893688686113e-02 3.2077183017563016e-02 0.0000000000000000e+00  5.8256481871710956e-03 1.4304556773486351e-02 0.0000000000000000e+00  6.5256610134530003e-04 4.3546617631510451e-03 0.0000000000000000e+00  -1.3753834332714121e-02 4.4435476166952599e-02 0.0000000000000000e+00  -2.3019721728510180e-03 1.0793580810464595e-01 0.0000000000000000e+00  -3.2887787603955783e-04 1.8085764531284430e-02 0.0000000000000000e+00  1.0804886339134928e-02 1.0013747027540973e-01 0.0000000000000000e+00  -2.6530772416352853e-02 7.1628285628619434e-02 0.0000000000000000e+00  -3.2178415758572581e-03 1.1065905937544815e-02 0.0000000000000000e+00  -2.3427458967605123e-02 9.0155520518764229e-02 0.0000000000000000e+00  8.4548741947392588e-03 1.0377883007795084e-01 0.0000000000000000e+00  -4.2817712493226426e-03 6.7394168830442218e-03 0.0000000000000000e+00  -2.3665258785091740e-02 5.3357732685146611e-02 0.0000000000000000e+00  1.0740633643694998e-02 1.0577672676710384e-01 0.0000000000000000e+00  2.6455110407708300e-03 4.0297802042558234e-03 0.0000000000000000e+00  -6.5478389607412186e-03 1.4206893071616673e-02 0.0000000000000000e+00  5.2653793488705138e-03 4.8319016123256751e-02 0.0000000000000000e+00  8.1819357978764398e-03 4.4265906050826219e-02 0.0000000000000000e+00  -5.4216817679386678e-03 1.3127351886958129e-02 0.0000000000000000e+00  2.4862033022859196e-02 5.5084687370654417e-02 0.0000000000000000e+00  -1.1014077914152619e-02 1.0214085409685864e-01 0.0000000000000000e+00  -6.3046180539769051e-03 2.0324769404472014e-02 0.0000000000000000e+00  5.1388736968147729e-03 8.4707573196378984e-03 0.0000000000000000e+00  4.0106402277569559e-03 2.2949530655380461e-02 0.0000000000000000e+00  1.0618478037201461e-02 3.2153322939430552e-02 0.0000000000000000e+00  4.0974354476004090e-03 1.0827889649665888e-01 0.0000000000000000e+00  6.8577859630184574e-03 2.4168452956675034e-02 0.0000000000000000e+00  6.5783898364332946e-03 3.4397073706699706e-02 0.0000000000000000e+00  -6.6343688905175528e-03 3.4488613855386034e-02 0.0000000000000000e+00  -4.0260214281551540e-03 2.3697392379995887e-02 0.0000000000000000e+00  -2.5521991001410307e-02 7.0412253598050992e-02 0.0000000000000000e+00  2.7197437023238191e-02 7.2583681813600601e-02 0.0000000000000000e+00  2.5923508252364294e-02 6.6910392872707697e-02 0.0000000000000000e+00  -1.0967155730188000e-02 1.5359288643543389e-02 0.0000000000000000e+00  -1.8752383655898638e-02 8.3319379383710382e-02 0.0000000000000000e+00  2.8826108065718568e-04 6.1137629070953962e-04 0.0000000000000000e+00  1.2813324953873710e-02 1.9737103982374743e-02 0.0000000000000000e+00  7.5275093124758542e-05 5.2914219309101330e-03 0.0000000000000000e+00  -1.4351539537870718e-02 8.8867615653531309e-02 0.0000000000000000e+00  -2.4487805111539952e-02 6.0458592263680000e-02 0.0000000000000000e+00  2.3183814502750939e-02 5.6179535867596810e-02 0.0000000000000000e+00  -9.4077979885648279e-03 1.0372623647446137e-01 0.0000000000000000e+00  6.4154703693932152e-03 1.8262310934194836e-02 0.0000000000000000e+00  2.7895918422418602e-02 7.5761532677867102e-02 0.0000000000000000e+00  2.0814607866265787e-02 6.0432550307101693e-02 0.0000000000000000e+00  -7.0797921875922504e-03 2.5385173850464172e