<?xml version="1.0"?>
<VTKFile type="UnstructuredGrid"  version="0.1"  >
<UnstructuredGrid>
<Piece  NumberOfPoints="5173" NumberOfCells="9966">
<Points>
<DataArray  type="Float64"  NumberOfComponents="3"  format="ascii">-0.5 0.5 0  -0.5 -0.5 0  0.5 -0.5 0  0.5 0.5 0  0.1998669600420274 0.02125869712947308 0  0.201 0 0  0.1998669600420274 -0.02125869712947312 0  0.1964806779635733 -0.04227652472592507 0  0.1908795216936763 -0.06281534240438978 0  0.1831269545709826 -0.08264243715367564 0  0.1733108162787611 -0.1015331600677681 0  0.1615423275861927 -0.1192734717077003 0  0.1479548301726135 -0.1356623672539232 0  0.1327022758130076 -0.1505141539712278 0  0.1159574820428814 -0.1636605551816338 0  0.09791017406652992 -0.1749526169063923 0  0.07876483509466403 -0.1842623955740826 0  0.05873838946792427 -0.1914844076724011 0  0.03805774481742277 -0.1965368249185042 0  0.01695722111061653 -0.1993624014061501 0  -0.004324104287555032 -0.1999291222246905 0  -0.02554510545674447 -0.1982305662008014 0  -0.04646533997422303 -0.194285978652942 0  -0.06684777322360611 -0.1881400533342067 0  -0.08646146409177112 -0.1798624260342438 0  -0.1050841816239485 -0.1695468855779342 0  -0.1225049229892384 -0.1573103111605285 0  -0.138526304226997 -0.143291348059663 0  -0.1529667966859812 -0.127648836728964 0  -0.165662783816503 -0.1105600130722386 0  -0.1764704150113143 -0.0922185002898652 0  -0.1852672354904677 -0.07283211505056446 0  -0.1919535737629032 -0.05262051284550421 0  -0.1964536709442689 -0.03181269920381437 0  -0.1987165391353524 -0.0106444349684357 0  -0.1987165391353524 0.01064443496843575 0  -0.1964536709442689 0.03181269920381442 0  -0.1919535737629032 0.05262051284550433 0  -0.1852672354904677 0.07283211505056443 0  -0.1764704150113143 0.09221850028986515 0  -0.165662783816503 0.1105600130722387 0  -0.1529667966859812 0.1276488367289641 0  -0.1385263042269969 0.1432913480596631 0  -0.1225049229892383 0.1573103111605285 0  -0.1050841816239485 0.1695468855779342 0  -0.08646146409177108 0.1798624260342438 0  -0.06684777322360606 0.1881400533342067 0  -0.04646533997422297 0.194285978652942 0  -0.02554510545674437 0.1982305662008015 0  -0.004324104287554939 0.1999291222246905 0  0.01695722111061662 0.19936240140615 0  0.03805774481742286 0.1965368249185042 0  0.05873838946792424 0.1914844076724011 0  0.07876483509466414 0.1842623955740826 0  0.09791017406653006 0.1749526169063922 0  0.1159574820428814 0.1636605551816338 0  0.1327022758130078 0.1505141539712277 0  0.1479548301726135 0.1356623672539232 0  0.1615423275861927 0.1192734717077003 0  0.1733108162787612 0.101533160067768 0  0.1831269545709827 0.08264243715367564 0  0.1908795216936763 0.06281534240438975 0  0.1964806779635734 0.04227652472592486 0  0 -0.5 0  0 0.5 0  -0.5 0 0  0.5 0 0  0.25 -0.5 0  0.25 0.5 0  0.5 0.25 0  0.5 -0.25 0  -0.25 0.5 0  -0.25 -0.5 0  -0.5 -0.25 0  -0.5 0.25 0  0.2918258229480683 0.2918258229480682 0  0.2865867850624828 -0.2932931940421196 0  -0.2962949893701896 0.274449924397287 0  -0.2913160373738303 -0.2913160373738304 0  -0.125 0.3636995408959175 0  0.3637738468862107 -0.1261303957107176 0  0.125 0.3665964626830409 0  0.3640958654762797 0.1232161970438493 0  -0.3624000654276585 -0.1218337159209422 0  -0.125 -0.3668200952157802 0  0.125 -0.3712838880907947 0  -0.3600991828528437 0.1089843577122111 0  -0.5 0.375 0  0.5 -0.375 0  -0.375 -0.5 0  0.5 0.375 0  -0.375 0.5 0  0.375 -0.5 0  -0.5 -0.375 0  0.375 0.5 0  0.0006860903712339345 -0.3306266888645853 0  -0.000109901520948898 0.3746323380112415 0  -0.5 0.125 0  -0.125 -0.5 0  -0.5 -0.125 0  0.5 0.125 0  0.5 -0.125 0  0.125 -0.5 0  -0.125 0.5 0  0.125 0.5 0  0.3748576787807123 -0.001471205609738957 0  -0.3738828512115154 0.3738828512115154 0  -0.3827617049088436 -0.006210238480157219 0  -0.2429234745416257 0.3810213699917807 0  0.3769180353829246 -0.3769180353829246 0  -0.3777687524152424 -0.3777687524152424 0  0.3780704009792175 0.3780704009792175 0  -0.1776483227107271 -0.2618630460446135 0  -0.2604485542051718 -0.1787215021996984 0  -0.1798547561877991 0.2599748505350166 0  0.3864703130478905 -0.2380123189195306 0  0.1785319646943122 0.2625417448451246 0  0.261692611046212 0.1791168901036931 0  0.2607171500730768 -0.1799460669666111 0  0.1733970740599892 -0.2651674952354912 0  -0.3880520258539732 -0.2322407641539351 0  -0.2352016482221373 -0.388638232840279 0  0.2734696242623063 0.3964265996649794 0  0.3883795026617865 0.233417864889234 0  0.2738670858792859 -0.3976331321261044 0  -0.2491638954018168 0.1780101911767213 0  -0.3926686215746083 0.2165776265637375 0  0.07109213498061834 0.2869023807262104 0  -0.2934183534017453 0.03147305416145122 0  -0.08119265072200343 -0.2826195781877594 0  0.2836913223256923 -0.07709296110799269 0  -0.0558729689268372 0.2928347535333279 0  0.2830965643121598 0.07693076420704528 0  0.08122371629649494 -0.2825469282280794 0  -0.2767834230915197 -0.08819590430941976 0  0.1875 0.4332982313415205 0  -0.04303186331845871 -0.4151376431551652 0  0.190970733019215 -0.4322714131851434 0  0.06249999999999999 -0.4356419440453974 0  0.4328061849987423 0.06633847947711793 0  0.0664712649494027 0.4332982313415205 0  -0.06249999999999998 0.4373709104419552 0  0.4341377633941729 0.309372588857957 0  -0.4374372828954266 -0.3125 0  -0.3104572497507675 -0.4353019888851174 0  0.4374701104890421 -0.3125 0  -0.3116291712721947 0.4366347031852421 0  -0.4374901042687089 0.3125 0  -0.4363926600558238 0.4363926600558238 0  -0.5 0.0625 0  0.5 -0.0625 0  0.5 -0.4375 0  -0.4375 -0.5 0  0.5 0.4375 0  -0.1875 0.5 0  -0.4323246583268963 -0.07454303397230311 0  0.2154950463309389 -0.3375719358844427 0  0.206977802238796 0.342973363124546 0  0.4322596267199844 -0.1704803839098939 0  -0.1690769129391571 -0.4334100476078901 0  0.5 0.1875 0  -0.5 -0.1875 0  0.2967149326504868 -2.965984816150069e-05 0  -0.2579082457853068 0.1006999711688991 0  -0.4261732609354634 -0.1652001701086123 0  0.4197274728231854 -0.06828306080156128 0  0.4316260558094222 0.15625 0  -0.1765935890523967 0.4225213035878151 0  -0.326101012911042 0.1780020696215199 0  -0.3639018823524438 -0.3051829074366289 0  -0.4219359613016062 0.06132313683084987 0  -0.368871881750981 0.2861301036496543 0  -0.3031928482819811 -0.3630024307590357 0  0.3125 0.5 0  0.3355547846059301 -0.437829382399898 0  0.3620936304880762 0.3078025934392096 0  -0.4265460575686851 0.1475964618934338 0  0.4375 -0.5 0  -0.5 -0.4375 0  0.4375 0.5 0  0.3587983613906559 -0.3058906763528768 0  -0.1889171018677358 -0.3331988582480375 0  0.3319769361362775 -0.1908238194547704 0  0.3337713745363715 0.4328433800405805 0  -0.3319644446835826 -0.1870886352472088 0  0.3329253892881625 0.1878611701133833 0  0.4281511341447153 -0.4281511341447153 0  -0.232840147849867 0.3093215053326949 0  -0.40625 -0.4395608850352885 0  0.428794887401249 0.428794887401249 0  -0.3380841551254475 -0.05794700007688498 0  0.008054260670409629 -0.2648994211243904 0  0.1899220001124564 -0.1947534447033338 0  -0.3080416507322476 0.3708200057439822 0  -0.06307278823153059 -0.3455430469652901 0  0.06447087227249242 -0.3459780260685607 0  0.1914876772934198 0.1922953616824615 0  0.1267822167193652 -0.4357424153550361 0  -0.1100367963981227 0.2468729543145758 0  -0.1040301628609493 -0.4382371732506554 0  0.008496887133013969 0.3088587185741126 0  -0.1939711685411953 -0.1799889819170536 0  0.1169089524024441 0.2383640108781663 0  -0.5 0.1875 0  -0.06301873836730842 0.3744639870876723 0  0.0612272731888486 0.3516549422231338 0  0.0001842875295821901 0.4373159592812666 0  0.315570863666392 0.3499038328432952 0  0.43737589643705 0.003767781375474147 0  0.3480437072584214 -0.06190943679164183 0  0.3704548124556613 0.06095691071954262 0  0.3139725644615085 -0.3495769689516506 0  0.5 -0.1875 0  -0.5 -0.0625 0  -0.5 0.3125 0  -0.1875 -0.5 0  -0.3125 0.5 0  -0.3125 -0.5 0  -0.5 -0.3125 0  0.5 0.3125 0  -0.0625 0.5 0  0.5 0.0625 0  0.0625 -0.5 0  0.1875 -0.5 0  0.3125 -0.5 0  0.1875 0.5 0  0.0625 0.5 0  0.5 -0.3125 0  -0.4375 0.5 0  -0.5 0.4375 0  -0.0625 -0.5 0  -0.3740130545720807 0.4376162026208867 0  0.2356432480937504 -0.1203529309141897 0  0.2354253261260549 0.120280228505195 0  -0.4358389466402443 0.374436564627095 0  -0.1837098359759774 0.1929485386776155 0  -0.1210077767998366 -0.2331474219302516 0  -0.4388230181844467 -0.3736756227341544 0  0.2385916116983025 -0.2446215854929363 0  0.01618154697154811 -0.392205807603664 0  0.3033224724982568 0.1345019962362828 0  0.1269856324747013 0.4273682536406486 0  -0.2618767198442009 -0.02513308225372456 0  -0.1869024341550137 0.3523407916866587 0  0.4460792014197047 0.2150519456240759 0  -0.228067921023645 -0.1261420173261541 0  0.4375111104956734 0.3693541778847931 0  -0.2344434115929863 0.441225502334267 0  -0.1349409233725989 -0.3081519167298867 0  0.2361921270004774 0.236858231392783 0  -0.1134625589296566 0.3058057213872041 0  0.1364902237265291 -0.2193600350069504 0  -0.231009496195906 -0.2899916451544192 0  -0.4420301468408164 -0.0153626464053197 0  -0.3638407636123014 0.04989392276612995 0  -0.2281634567999949 -0.2293698735254731 0  -0.2404608239114909 0.2480193450766527 0  0.1548586079872366 0.3161601351946364 0  -0.2905808065687782 -0.2309892133488608 0  0.1583090638615736 -0.3223807786382032 0  0.3037640590628244 -0.1367963242859415 0  0.441474411355182 -0.3710236808063671 0  -0.1184457037417267 0.4214861255011078 0  0.3280783743867655 -0.2503846686276005 0  0.4421147536667354 -0.254616967737483 0  -0.4419160956032748 -0.2544205585064326 0  -0.3074463395544132 -0.1359279022829991 0  0.3366964226424555 0.256991018383815 0  -0.4508616135570574 0.21875 0  -0.3395120610056381 0.2372377549435862 0  -0.2261617732606898 -0.4465036260914809 0  0.2350726063974556 0.2936290504086719 0  0.007756726855498133 0.253726523067807 0  0.2816091581197124 -0.4531847002458751 0  0.002693579241951911 -0.4452927028974097 0  0.2614770372227774 0.3432624384800261 0  0.2905620892368345 0.2263682042801985 0  -0.2876366597373845 0.2178464403043631 0  0.2807413030307
[...]
<PointData  Vectors="f_44"> 
<DataArray  type="Float64"  Name="f_44"  NumberOfComponents="3" format="ascii">-7.2292754465180849e-03 1.8367346938775514e-01 0.0000000000000000e+00  -1.4886269111460268e-04 2.8600098751058569e-04 0.0000000000000000e+00  1.2108418401042603e-04 2.5373487317659595e-04 0.0000000000000000e+00  -7.6013333655729730e-03 1.8367346938775508e-01 0.0000000000000000e+00  0.0000000000000000e+00 0.0000000000000000e+00 0.0000000000000000e+00  0.0000000000000000e+00 0.0000000000000000e+00 0.0000000000000000e+00  0.0000000000000000e+00 0.0000000000000000e+00 0.0000000000000000e+00  0.0000000000000000e+00 0.0000000000000000e+00 0.0000000000000000e+00  0.0000000000000000e+00 0.0000000000000000e+00 0.0000000000000000e+00  0.0000000000000000e+00 0.0000000000000000e+00 0.0000000000000000e+00  0.0000000000000000e+00 0.0000000000000000e+00 0.0000000000000000e+00  0.0000000000000000e+00 0.0000000000000000e+00 0.0000000000000000e+00  0.0000000000000000e+00 0.0000000000000000e+00 0.0000000000000000e+00  0.0000000000000000e+00 0.0000000000000000e+00 0.0000000000000000e+00  0.0000000000000000e+00 0.0000000000000000e+00 0.0000000000000000e+00  0.0000000000000000e+00 0.0000000000000000e+00 0.0000000000000000e+00  0.0000000000000000e+00 0.0000000000000000e+00 0.0000000000000000e+00  0.0000000000000000e+00 0.0000000000000000e+00 0.0000000000000000e+00  0.0000000000000000e+00 0.0000000000000000e+00 0.0000000000000000e+00  0.0000000000000000e+00 0.0000000000000000e+00 0.0000000000000000e+00  0.0000000000000000e+00 0.0000000000000000e+00 0.0000000000000000e+00  0.0000000000000000e+00 0.0000000000000000e+00 0.0000000000000000e+00  0.0000000000000000e+00 0.0000000000000000e+00 0.0000000000000000e+00  0.0000000000000000e+00 0.0000000000000000e+00 0.0000000000000000e+00  0.0000000000000000e+00 0.0000000000000000e+00 0.0000000000000000e+00  0.0000000000000000e+00 0.0000000000000000e+00 0.0000000000000000e+00  0.0000000000000000e+00 0.0000000000000000e+00 0.0000000000000000e+00  0.0000000000000000e+00 0.0000000000000000e+00 0.0000000000000000e+00  0.0000000000000000e+00 0.0000000000000000e+00 0.0000000000000000e+00  0.0000000000000000e+00 0.0000000000000000e+00 0.0000000000000000e+00  0.0000000000000000e+00 0.0000000000000000e+00 0.0000000000000000e+00  0.0000000000000000e+00 0.0000000000000000e+00 0.0000000000000000e+00  0.0000000000000000e+00 0.0000000000000000e+00 0.0000000000000000e+00  0.0000000000000000e+00 0.0000000000000000e+00 0.0000000000000000e+00  0.0000000000000000e+00 0.0000000000000000e+00 0.0000000000000000e+00  0.0000000000000000e+00 0.0000000000000000e+00 0.0000000000000000e+00  0.0000000000000000e+00 0.0000000000000000e+00 0.0000000000000000e+00  0.0000000000000000e+00 0.0000000000000000e+00 0.0000000000000000e+00  0.0000000000000000e+00 0.0000000000000000e+00 0.0000000000000000e+00  0.0000000000000000e+00 0.0000000000000000e+00 0.0000000000000000e+00  0.0000000000000000e+00 0.0000000000000000e+00 0.0000000000000000e+00  0.0000000000000000e+00 0.0000000000000000e+00 0.0000000000000000e+00  0.0000000000000000e+00 0.0000000000000000e+00 0.0000000000000000e+00  0.0000000000000000e+00 0.0000000000000000e+00 0.0000000000000000e+00  0.0000000000000000e+00 0.0000000000000000e+00 0.0000000000000000e+00  0.0000000000000000e+00 0.0000000000000000e+00 0.0000000000000000e+00  0.0000000000000000e+00 0.0000000000000000e+00 0.0000000000000000e+00  0.0000000000000000e+00 0.0000000000000000e+00 0.0000000000000000e+00  0.0000000000000000e+00 0.0000000000000000e+00 0.0000000000000000e+00  0.0000000000000000e+00 0.0000000000000000e+00 0.0000000000000000e+00  0.0000000000000000e+00 0.0000000000000000e+00 0.0000000000000000e+00  0.0000000000000000e+00 0.0000000000000000e+00 0.0000000000000000e+00  0.0000000000000000e+00 0.0000000000000000e+00 0.0000000000000000e+00  0.0000000000000000e+00 0.0000000000000000e+00 0.0000000000000000e+00  0.0000000000000000e+00 0.0000000000000000e+00 0.0000000000000000e+00  0.0000000000000000e+00 0.0000000000000000e+00 0.0000000000000000e+00  0.0000000000000000e+00 0.0000000000000000e+00 0.0000000000000000e+00  0.0000000000000000e+00 0.0000000000000000e+00 0.0000000000000000e+00  0.0000000000000000e+00 0.0000000000000000e+00 0.0000000000000000e+00  0.0000000000000000e+00 0.0000000000000000e+00 0.0000000000000000e+00  0.0000000000000000e+00 0.0000000000000000e+00 0.0000000000000000e+00  0.0000000000000000e+00 0.0000000000000000e+00 0.0000000000000000e+00  0.0000000000000000e+00 0.0000000000000000e+00 0.0000000000000000e+00  -1.3344883177126824e-05 4.9197165594216010e-05 0.0000000000000000e+00  -7.4038379300014820e-03 1.8367346938775508e-01 0.0000000000000000e+00  5.5701119267663909e-05 4.6396059418094714e-04 0.0000000000000000e+00  -6.3965317314622564e-05 4.2282123898660512e-04 0.0000000000000000e+00  1.0225055285230566e-04 1.2746591802620662e-04 0.0000000000000000e+00  -7.5232708977663112e-03 1.8367346938775508e-01 0.0000000000000000e+00  -8.0783496377362721e-03 1.8287735926089041e-01 0.0000000000000000e+00  4.2206309030950442e-05 2.7267675785832039e-04 0.0000000000000000e+00  -7.3103081815022982e-03 1.8367346938775511e-01 0.0000000000000000e+00  -1.3008233025047994e-04 1.4389805019007066e-04 0.0000000000000000e+00  -5.6317625476057486e-05 3.0493982131663325e-04 0.0000000000000000e+00  -3.1160499154505171e-03 1.7887341623556186e-01 0.0000000000000000e+00  -7.5574186697394971e-03 1.8345977458332596e-01 0.0000000000000000e+00  5.1957120306334303e-05 1.4089349406135282e-04 0.0000000000000000e+00  -7.2240437110000612e-03 1.8341465121403111e-01 0.0000000000000000e+00  -6.7486538764623257e-05 1.6335064808083950e-04 0.0000000000000000e+00  -7.3382243663714852e-03 1.8357558782957795e-01 0.0000000000000000e+00  2.4585596299407417e-05 2.2837252218415799e-04 0.0000000000000000e+00  -7.4849853925626868e-03 1.8354099170902960e-01 0.0000000000000000e+00  -1.4836243281142667e-04 3.6693560189214049e-04 0.0000000000000000e+00  -3.3366811888831472e-05 2.5318467186275238e-04 0.0000000000000000e+00  -4.6712071966974510e-05 5.9669264972216451e-05 0.0000000000000000e+00  2.9212656997562776e-05 5.2853116903861161e-05 0.0000000000000000e+00  1.1836227782236981e-04 3.7682371079082093e-04 0.0000000000000000e+00  -7.1933082645868063e-03 1.8348525130205348e-01 0.0000000000000000e+00  7.4277611126822359e-05 2.5424566434266633e-04 0.0000000000000000e+00  -1.4842869166485946e-04 2.2170572328184871e-04 0.0000000000000000e+00  -7.6126005274486938e-03 1.8353709513464750e-01 0.0000000000000000e+00  -7.2742825575744154e-03 1.8367346938775511e-01 0.0000000000000000e+00  1.2052010334732904e-04 1.9704328296558021e-04 0.0000000000000000e+00  -9.4673718324082243e-05 2.8643581104541169e-04 0.0000000000000000e+00  -7.5650200029717535e-03 1.8367346938775508e-01 0.0000000000000000e+00  -6.9302693937719018e-06 2.3261419194385600e-05 0.0000000000000000e+00  -7.4096024883861583e-03 1.8354591798500897e-01 0.0000000000000000e+00  1.9311276802509085e-04 6.1362036130813494e-04 0.0000000000000000e+00  -8.1588826989415240e-05 7.7245312580659690e-05 0.0000000000000000e+00  -1.5609435174847359e-05 3.6101413262576930e-04 0.0000000000000000e+00  -1.9444889635223666e-04 5.5269090898917277e-04 0.0000000000000000e+00  5.5962604815525706e-06 3.2729602668519787e-04 0.0000000000000000e+00  5.4566354150680013e-05 6.9316179794854554e-05 0.0000000000000000e+00  -7.3483734746402681e-03 1.8367346938775511e-01 0.0000000000000000e+00  -7.4685800121423061e-03 1.8367346938775511e-01 0.0000000000000000e+00  -3.3597738241694037e-05 2.9466257709538993e-04 0.0000000000000000e+00  -7.2414887261508781e-03 1.8354998997822267e-01 0.0000000000000000e+00  2.2307354578325890e-05 3.3043558089264894e-04 0.0000000000000000e+00  -7.2963053060379592e-03 1.8358593701650755e-01 0.0000000000000000e+00  7.4211964532433616e-05 1.9837866300224632e-04 0.0000000000000000e+00  -9.4963308940468590e-05 2.2372777215021330e-04 0.0000000000000000e+00  -7.5799210820479612e-03 1.8356472205972532e-01 0.0000000000000000e+00  -4.2968501761475501e-05 7.1107609387073906e-05 0.0000000000000000e+00  -4.4418797808273310e-05 1.3178187359084816e-04 0.0000000000000000e+00  1.0433835411599888e-04 4.5962748078314425e-04 0.0000000000000000e+00  4.7169403631028966e-05 2.1961165265519400e-04 0.0000000000000000e+00  -7.0396006046929242e-03 1.8297466946709226e-01 0.0000000000000000e+00  -1.5507844620359397e-04 2.6533395731255868e-04 0.0000000000000000e+00  3.5448213175750174e-05 1.1664433719329671e-04 0.0000000000000000e+00  3.1029998168398851e-05 5.9472553446970432e-05 0.0000000000000000e+00  -5.9445365673879378e-05 2.4792983988288961e-04 0.0000000000000000e+00  -7.9885662040331341e-05 1.2597099635485844e-04 0.0000000000000000e+00  -7.5403773757405880e-03 1.8357510603279056e-01 0.0000000000000000e+00  -7.5272141038198988e-03 1.8305676879818003e-01 0.0000000000000000e+00  6.8627895919609204e-05 1.3511304338996292e-04 0.0000000000000000e+00  1.3739256689251661e-04 2.2679984816393261e-04 0.0000000000000000e+00  2.7782950955106649e-04 6.0630498549072342e-04 0.0000000000000000e+00  -7.5864242684888835e-03 1.8311287689836922e-01 0.0000000000000000e+00  2.7139096467612136e-05 2.0863767589717993e-04 0.0000000000000000e+00  -2.2765848016046459e-05 2.7451113806769136e-05 0.0000000000000000e+00  1.5521917722048036e-05 1.4578881370241008e-04 0.0000000000000000e+00  -8.1744010693819910e-03 1.8159441964615392e-01 0.0000000000000000e+00  -6.2175366766350546e-05 2.0604958518386882e-04 0.0000000000000000e+00  1.2121228747957043e-05 2.3620416418445896e-05 0.0000000000000000e+00  -2.5012889794592425e-05 1.5060368924194254e-04 0.0000000000000000e+00  -7.5008975179618100e-03 1.8360833447780994e-01 0.0000000000000000e+00  -2.6630082515118362e-05 4.0896153165988996e-05 0.0000000000000000e+00  5.8751400831148411e-05 8.9712511208109777e-05 0.0000000000000000e+00  1.4357175933958901e-05 4.3912555295294978e-05 0.0000000000000000e+00  -1.0504241734432212e-04 4.1089146714970247e-04 0.0000000000000000e+00  -7.4424160338161542e-03 1.8360601247187025e-01 0.0000000000000000e+00  -7.3724496459194417e-03 1.8361996700184613e-01 0.0000000000000000e+00  -7.6230008042190902e-03 1.8350671818866099e-01 0.0000000000000000e+00  -7.6679272025819841e-05 2.6526798547583512e-04 0.0000000000000000e+00  -1.0929532370846799e-04 1.7950607552322354e-04 0.0000000000000000e+00  5.9611364478949628e-05 2.3649602665690923e-04 0.0000000000000000e+00  -7.2863289364867934e-03 1.8362054555992519e-01 0.0000000000000000e+00  -7.1576572673187596e-03 1.8345306368293737e-01 0.0000000000000000e+00  -7.2458173595239999e-03 1.8359779060017661e-01 0.0000000000000000e+00  1.1305852853421492e-04 5.3337303256977431e-04 0.0000000000000000e+00  -2.3267785663889943e-05 3.7008204022716978e-04 0.0000000000000000e+00  9.5696852045728745e-05 2.5339053305974721e-04 0.0000000000000000e+00  -1.4920587569165950e-04 2.5584568187697273e-04 0.0000000000000000e+00  -7.6038550207542018e-03 1.8360704886648574e-01 0.0000000000000000e+00  -7.3282700636244933e-03 1.8367346938775508e-01 0.0000000000000000e+00  -6.2969464750714887e-06 3.4635587053791239e-04 0.0000000000000000e+00  4.7026116312376261e-05 9.4712293737645979e-05 0.0000000000000000e+00  -7.5230580561113378e-03 1.8352003895760691e-01 0.0000000000000000e+00  2.9847420624631921e-05 2.6939218864541675e-04 0.0000000000000000e+00  -7.5356484076309909e-05 8.9867280038587207e-05 0.0000000000000000e+00  -3.1930942139405072e-04 6.6684656400625784e-04 0.0000000000000000e+00  -3.7850022000276206e-05 3.2753287684931891e-04 0.0000000000000000e+00  -1.6512360039540950e-05 1.8559151232806144e-04 0.0000000000000000e+00  6.3197250344269713e-05 1.8039592426137468e-04 0.0000000000000000e+00  -4.0361454164558156e-05 2.9677956884704808e-04 0.0000000000000000e+00  -4.4225520923921238e-06 3.0632015649492542e-04 0.0000000000000000e+00  -2.1942812069608873e-04 4.8245212748282076e-04 0.0000000000000000e+00  -7.3270805805341821e-03 1.8362036194876422e-01 0.0000000000000000e+00  1.8906659472694176e-04 3.8075356138232469e-04 0.0000000000000000e+00  -7.5098510623373410e-05 2.1920971007422402e-04 0.0000000000000000e+00  8.7324413949397146e-05 4.3364170162496729e-04 0.0000000000000000e+00  -7.1808439522958881e-03 1.8342542677951162e-01 0.0000000000000000e+00  -8.4413606841242207e-05 1.7278372953456343e-04 0.0000000000000000e+00  -7.5458584649183936e-03 1.8367346938775511e-01 0.0000000000000000e+00  8.9642029473351636e-05 1.7393276383035383e-04 0.0000000000000000e+00  -7.5923704708263208e-03 1.8349857850393189e-01 0.0000000000000000e+00  2.0050900050761617e-04 5.2153134576821093e-04 0.0000000000000000e+00  1.2138797483433243e-04 2.2729171737219489e-04 0.0000000000000000e+00  -1.1975239757502027e-04 2.8567731386661534e-04 0.0000000000000000e+00  -7.5825216010871627e-03 1.8367346938775511e-01 0.0000000000000000e+00  5.8511986636228219e-05 1.9159340088797147e-04 0.0000000000000000e+00  -5.7459022114463038e-05 9.0030593220987744e-05 0.0000000000000000e+00  4.0266353593006143e-05 1.8407282946209151e-04 0.0000000000000000e+00  -7.5568089741485586e-03 1.8361204769998118e-01 0.0000000000000000e+00  -5.0767514113222335e-05 2.0658567861520235e-04 0.0000000000000000e+00  -2.1894314132583586e-04 4.1372950773335053e-04 0.0000000000000000e+00  9.1843436977113844e-05 2.2343178680284419e-04 0.0000000000000000e+00  -7.2745346756989647e-03 1.8351622810311530e-01 0.0000000000000000e+00  -1.1954046581866878e-04 2.3930589031998518e-04 0.0000000000000000e+00  -7.5838439721870174e-03 1.8360634490551012e-01 0.0000000000000000e+00  -1.2140765924686539e-05 2.4450426463235568e-04 0.0000000000000000e+00  -2.5554464536124357e-06 1.1004342968625854e-05 0.0000000000000000e+00  2.6086501633862166e-05 5.5315554511820699e-05 0.0000000000000000e+00  -7.2675022304658794e-03 1.8356463514145846e-01 0.0000000000000000e+00  -2.5777984414599303e-05 3.4465504868888723e-05 0.0000000000000000e+00  1.0422688238105039e-05 3.1264513204455201e-05 0.0000000000000000e+00  -1.0444911140737383e-04 1.5334176620015815e-04 0.0000000000000000e+00  3.8753093699054273e-05 6.1562726613664830e-05 0.0000000000000000e+00  7.9671094804772529e-05 9.9642126969385166e-05 0.0000000000000000e+00  -5.3685579272501811e-05 6.0774672983442090e-05 0.0000000000000000e+00  -7.4284000611926819e-03 1.8335966573401169e-01 0.0000000000000000e+00  -3.1459164868812949e-05 6.3509214241631168e-05 0.0000000000000000e+00  -7.3364625422185162e-05 1.4608763520572714e-04 0.0000000000000000e+00  3.1750536429338744e-04 7.1625466920613944e-04 0.0000000000000000e+00  -7.3699918097795561e-03 1.8356206202608980e-01 0.0000000000000000e+00  -7.4544058324610670e-03 1.8351089325174935e-01 0.0000000000000000e+00  -7.4051506570313782e-03 1.8361283227911337e-01 0.0000000000000000e+00  -7.5640190329184552e-03 1.8353315090336142e-01 0.0000000000000000e+00  -5.1235720516905383e-05 3.6896989262098453e-04 0.0000000000000000e+00  3.8876076591194238e-06 2.3297755529079519e-04 0.0000000000000000e+00  -8.2401414119137039e-05 3.2826635433415535e-04 0.0000000000000000e+00  6.3515238878411563e-05 1.5993026326215491e-04 0.0000000000000000e+00  2.6278198164798896e-05 2.9482326404307733e-04 0.0000000000000000e+00  1.4315203652539322e-05 4.0635644541322537e-04 0.0000000000000000e+00  -7.1198915872086157e-03 1.8336474968536604e-01 0.0000000000000000e+00  -1.0935586451527068e-04 1.0720129913390923e-04 0.0000000000000000e+00  -7.2925863726805047e-03 1.8367346938775511e-01 0.0000000000000000e+00  -1.4275720385404695e-04 1.8345042302416576e-04 0.0000000000000000e+00  -7.4191938774635755e-05 2.9189752828595659e-04 0.0000000000000000e+00  -7.6434510227334036e-03 1.8344784841203865e-01 0.0000000000000000e+00  -7.3733780341406398e-03 1.8367346938775511e-01 0.0000000000000000e+00  -1.1953189727000159e-04 4.8401315363665964e-04 0.0000000000000000e+00  2.1941246603865978e-05 5.3376596498976554e-05 0.0000000000000000e+00  8.1868180697647393e-05 9.4960831376558145e-05 0.0000000000000000e+00  1.1488326837183165e-04 1.6278459486491383e-04 0.0000000000000000e+00  -7.4974023282107557e-03 1.8367346938775511e-01 0.0000000000000000e+00  -7.4368187642387231e-03 1.8367346938775511e-01 0.0000000000000000e+00  5.7133078876454945e-05 2.5972970492527131e-04 0.0000000000000000e+00  -7.2540365613808734e-03 1.8367346938775508e-01 0.0000000000000000e+00  -7.2209512336123289e-03 1.8358109294355601e-01 0.0000000000000000e+00  -4.8804106412503099e-05 5.7360272236075947e-05 0.0000000000000000e+00  -7.2666531185515216e-03 1.8361261854153893e-01 0.0000000000000000e+00  2.2593796075590870e-05 8.3409035323823457e-05 0.0000000000000000e+00  -7.0578872439843907e-05 1.5043023347476647e-04 0.0000000000000000e+00  -7.2180031604877530e-03 1.8352692412777533e-01 0.0000000000000000e+00  9.6544546587234054e-05 1.1810966283990848e-04 0.0000000000000000e+00  -2.3510781073074742e-05 3.0227054140766618e-05 0.0000000000000000e+00  -9.4934979012818645e-05 2.5941329413425586e-04 0.0000000000000000e+00  4.0633304218803823e-05 1.0217732576181579e-04 0.0000000000000000e+00  -4.0567998025306871e-06 3.3087926204171474e-05 0.0000000000000000e+00  -1.3020765123398020e-04 2.8944954930631631e-04 0.0000000000000000e+00  -7.4742278116193672e-03 1.8360119819269083e-01 0.0000000000000000e+00  -4.7481176785786034e-06 1.3227882310710962e-04 0.0000000000000000e+00  -7.3120978500958254e-03 1.8357176082557375e-01 0.0000000000000000e+00  -3.3645267160033079e-04 6.6110484479824365e-04 0.0000000000000000e+00  -2.7929677378974902e-05 8.6173265958544714e-05 0.0000000000000000e+00  -7.5966591296630108e-03 1.8355207217316374e-01 0.0000000000000000e+00  -7.3110467763037399e-03 1.8363125048319162e-01 0.0000000000000000e+00  -4.0078190708180352e-05 5.4877148072359214e-05 0.0000000000000000e+00  -4.2776655720277377e-04 8.0720625749559894e-04 0.0000000000000000e+00  -7.3385490537535231e-03 1.8349397027551273e-01 0.0000000000000000e+00  1.7666482465931457e-05 2.8483234986205355e-05 0.0000000000000000e+00  -5.8632270239087744e-05 1.1487456773409097e-04 0.0000000000000000e+00  2.9035194737633014e-05 3.9629401912451279e-04 0.0000000000000000e+00  5.9801832132272118e-05 3.3838639954944391e-04 0.0000000000000000e+00  -4.8205087421905256e-05 1.0541576821213616e-04 0.0000000000000000e+00  2.2024403301086244e-04 4.1592004505772065e-04 0.0000000000000000e+00  -7.5106812098037195e-03 1.8348479423906891e-01 0.0000000000000000e+00  -5.6925053302793279e-05 1.6309161777475629e-04 0.0000000000000000e+00  3.3000129865486213e-05 6.0599899619779658e-05 0.0000000000000000e+00  3.0095987168366723e-05 1.6313999714987141e-04 0.0000000000000000e+00  7.3836314287994639e-05 2.3215954467870639e-04 0.0000000000000000e+00  -7.3472319098316172e-03 1.8361552503863643e-01 0.0000000000000000e+00  4.9117662808073391e-05 1.7419344051223981e-04 0.0000000000000000e+00  4.7553170038039574e-05 2.4957212886587320e-04 0.0000000000000000e+00  -6.1868221957986046e-05 2.7882582932553903e-04 0.0000000000000000e+00  -3.8825848857911705e-05 1.8671946681223314e-04 0.0000000000000000e+00  -7.5827487982808982e-03 1.8332513892200303e-01 0.0000000000000000e+00  3.5666185372031735e-04 7.1267762049887948e-04 0.0000000000000000e+00  3.5370214247245149e-04 8.3024536839757847e-04 0.0000000000000000e+00  -9.6760745877749350e-05 1.2463809551178619e-04 0.0000000000000000e+00  -7.5443839793175134e-03 1.8345212742105926e-01 0.0000000000000000e+00  6.0274791029380112e-06 1.0308486143912613e-04 0.0000000000000000e+00  8.7476586902008994e-05 1.4254779581508546e-04 0.0000000000000000e+00  -1.0389984807078735e-05 4.0696705148784563e-05 0.0000000000000000e+00  -7.5441391715759532e-03 1.8352335539331263e-01 0.0000000000000000e+00  -7.9380201205048908e-05 8.6361232469140737e-04 0.0000000000000000e+00  2.1042136535547244e-04 3.6502253469286139e-04 0.0000000000000000e+00  -7.5366863268222983e-03 1.8362876309574361e-01 0.0000000000000000e+00  6.5400874558024677e-05 1.2108558540291290e-04 0.0000000000000000e+00  -7.1172395975038624e-03 1.8308186416574340e-01 0.0000000000000000e+00  2.0366008965034410e-04 4.6117710078037087e-04 0.0000000000000000e+00  -6