<?xml version="1.0"?>
<VTKFile type="UnstructuredGrid"  version="0.1"  >
<UnstructuredGrid>
<Piece  NumberOfPoints="5173" NumberOfCells="9966">
<Points>
<DataArray  type="Float64"  NumberOfComponents="3"  format="ascii">-0.5 0.5 0  -0.5 -0.5 0  0.5 -0.5 0  0.5 0.5 0  0.1998669600420274 0.02125869712947308 0  0.201 0 0  0.1998669600420274 -0.02125869712947312 0  0.1964806779635733 -0.04227652472592507 0  0.1908795216936763 -0.06281534240438978 0  0.1831269545709826 -0.08264243715367564 0  0.1733108162787611 -0.1015331600677681 0  0.1615423275861927 -0.1192734717077003 0  0.1479548301726135 -0.1356623672539232 0  0.1327022758130076 -0.1505141539712278 0  0.1159574820428814 -0.1636605551816338 0  0.09791017406652992 -0.1749526169063923 0  0.07876483509466403 -0.1842623955740826 0  0.05873838946792427 -0.1914844076724011 0  0.03805774481742277 -0.1965368249185042 0  0.01695722111061653 -0.1993624014061501 0  -0.004324104287555032 -0.1999291222246905 0  -0.02554510545674447 -0.1982305662008014 0  -0.04646533997422303 -0.194285978652942 0  -0.06684777322360611 -0.1881400533342067 0  -0.08646146409177112 -0.1798624260342438 0  -0.1050841816239485 -0.1695468855779342 0  -0.1225049229892384 -0.1573103111605285 0  -0.138526304226997 -0.143291348059663 0  -0.1529667966859812 -0.127648836728964 0  -0.165662783816503 -0.1105600130722386 0  -0.1764704150113143 -0.0922185002898652 0  -0.1852672354904677 -0.07283211505056446 0  -0.1919535737629032 -0.05262051284550421 0  -0.1964536709442689 -0.03181269920381437 0  -0.1987165391353524 -0.0106444349684357 0  -0.1987165391353524 0.01064443496843575 0  -0.1964536709442689 0.03181269920381442 0  -0.1919535737629032 0.05262051284550433 0  -0.1852672354904677 0.07283211505056443 0  -0.1764704150113143 0.09221850028986515 0  -0.165662783816503 0.1105600130722387 0  -0.1529667966859812 0.1276488367289641 0  -0.1385263042269969 0.1432913480596631 0  -0.1225049229892383 0.1573103111605285 0  -0.1050841816239485 0.1695468855779342 0  -0.08646146409177108 0.1798624260342438 0  -0.06684777322360606 0.1881400533342067 0  -0.04646533997422297 0.194285978652942 0  -0.02554510545674437 0.1982305662008015 0  -0.004324104287554939 0.1999291222246905 0  0.01695722111061662 0.19936240140615 0  0.03805774481742286 0.1965368249185042 0  0.05873838946792424 0.1914844076724011 0  0.07876483509466414 0.1842623955740826 0  0.09791017406653006 0.1749526169063922 0  0.1159574820428814 0.1636605551816338 0  0.1327022758130078 0.1505141539712277 0  0.1479548301726135 0.1356623672539232 0  0.1615423275861927 0.1192734717077003 0  0.1733108162787612 0.101533160067768 0  0.1831269545709827 0.08264243715367564 0  0.1908795216936763 0.06281534240438975 0  0.1964806779635734 0.04227652472592486 0  0 -0.5 0  0 0.5 0  -0.5 0 0  0.5 0 0  0.25 -0.5 0  0.25 0.5 0  0.5 0.25 0  0.5 -0.25 0  -0.25 0.5 0  -0.25 -0.5 0  -0.5 -0.25 0  -0.5 0.25 0  0.2918258229480683 0.2918258229480682 0  0.2865867850624828 -0.2932931940421196 0  -0.2962949893701896 0.274449924397287 0  -0.2913160373738303 -0.2913160373738304 0  -0.125 0.3636995408959175 0  0.3637738468862107 -0.1261303957107176 0  0.125 0.3665964626830409 0  0.3640958654762797 0.1232161970438493 0  -0.3624000654276585 -0.1218337159209422 0  -0.125 -0.3668200952157802 0  0.125 -0.3712838880907947 0  -0.3600991828528437 0.1089843577122111 0  -0.5 0.375 0  0.5 -0.375 0  -0.375 -0.5 0  0.5 0.375 0  -0.375 0.5 0  0.375 -0.5 0  -0.5 -0.375 0  0.375 0.5 0  0.0006860903712339345 -0.3306266888645853 0  -0.000109901520948898 0.3746323380112415 0  -0.5 0.125 0  -0.125 -0.5 0  -0.5 -0.125 0  0.5 0.125 0  0.5 -0.125 0  0.125 -0.5 0  -0.125 0.5 0  0.125 0.5 0  0.3748576787807123 -0.001471205609738957 0  -0.3738828512115154 0.3738828512115154 0  -0.3827617049088436 -0.006210238480157219 0  -0.2429234745416257 0.3810213699917807 0  0.3769180353829246 -0.3769180353829246 0  -0.3777687524152424 -0.3777687524152424 0  0.3780704009792175 0.3780704009792175 0  -0.1776483227107271 -0.2618630460446135 0  -0.2604485542051718 -0.1787215021996984 0  -0.1798547561877991 0.2599748505350166 0  0.3864703130478905 -0.2380123189195306 0  0.1785319646943122 0.2625417448451246 0  0.261692611046212 0.1791168901036931 0  0.2607171500730768 -0.1799460669666111 0  0.1733970740599892 -0.2651674952354912 0  -0.3880520258539732 -0.2322407641539351 0  -0.2352016482221373 -0.388638232840279 0  0.2734696242623063 0.3964265996649794 0  0.3883795026617865 0.233417864889234 0  0.2738670858792859 -0.3976331321261044 0  -0.2491638954018168 0.1780101911767213 0  -0.3926686215746083 0.2165776265637375 0  0.07109213498061834 0.2869023807262104 0  -0.2934183534017453 0.03147305416145122 0  -0.08119265072200343 -0.2826195781877594 0  0.2836913223256923 -0.07709296110799269 0  -0.0558729689268372 0.2928347535333279 0  0.2830965643121598 0.07693076420704528 0  0.08122371629649494 -0.2825469282280794 0  -0.2767834230915197 -0.08819590430941976 0  0.1875 0.4332982313415205 0  -0.04303186331845871 -0.4151376431551652 0  0.190970733019215 -0.4322714131851434 0  0.06249999999999999 -0.4356419440453974 0  0.4328061849987423 0.06633847947711793 0  0.0664712649494027 0.4332982313415205 0  -0.06249999999999998 0.4373709104419552 0  0.4341377633941729 0.309372588857957 0  -0.4374372828954266 -0.3125 0  -0.3104572497507675 -0.4353019888851174 0  0.4374701104890421 -0.3125 0  -0.3116291712721947 0.4366347031852421 0  -0.4374901042687089 0.3125 0  -0.4363926600558238 0.4363926600558238 0  -0.5 0.0625 0  0.5 -0.0625 0  0.5 -0.4375 0  -0.4375 -0.5 0  0.5 0.4375 0  -0.1875 0.5 0  -0.4323246583268963 -0.07454303397230311 0  0.2154950463309389 -0.3375719358844427 0  0.206977802238796 0.342973363124546 0  0.4322596267199844 -0.1704803839098939 0  -0.1690769129391571 -0.4334100476078901 0  0.5 0.1875 0  -0.5 -0.1875 0  0.2967149326504868 -2.965984816150069e-05 0  -0.2579082457853068 0.1006999711688991 0  -0.4261732609354634 -0.1652001701086123 0  0.4197274728231854 -0.06828306080156128 0  0.4316260558094222 0.15625 0  -0.1765935890523967 0.4225213035878151 0  -0.326101012911042 0.1780020696215199 0  -0.3639018823524438 -0.3051829074366289 0  -0.4219359613016062 0.06132313683084987 0  -0.368871881750981 0.2861301036496543 0  -0.3031928482819811 -0.3630024307590357 0  0.3125 0.5 0  0.3355547846059301 -0.437829382399898 0  0.3620936304880762 0.3078025934392096 0  -0.4265460575686851 0.1475964618934338 0  0.4375 -0.5 0  -0.5 -0.4375 0  0.4375 0.5 0  0.3587983613906559 -0.3058906763528768 0  -0.1889171018677358 -0.3331988582480375 0  0.3319769361362775 -0.1908238194547704 0  0.3337713745363715 0.4328433800405805 0  -0.3319644446835826 -0.1870886352472088 0  0.3329253892881625 0.1878611701133833 0  0.4281511341447153 -0.4281511341447153 0  -0.232840147849867 0.3093215053326949 0  -0.40625 -0.4395608850352885 0  0.428794887401249 0.428794887401249 0  -0.3380841551254475 -0.05794700007688498 0  0.008054260670409629 -0.2648994211243904 0  0.1899220001124564 -0.1947534447033338 0  -0.3080416507322476 0.3708200057439822 0  -0.06307278823153059 -0.3455430469652901 0  0.06447087227249242 -0.3459780260685607 0  0.1914876772934198 0.1922953616824615 0  0.1267822167193652 -0.4357424153550361 0  -0.1100367963981227 0.2468729543145758 0  -0.1040301628609493 -0.4382371732506554 0  0.008496887133013969 0.3088587185741126 0  -0.1939711685411953 -0.1799889819170536 0  0.1169089524024441 0.2383640108781663 0  -0.5 0.1875 0  -0.06301873836730842 0.3744639870876723 0  0.0612272731888486 0.3516549422231338 0  0.0001842875295821901 0.4373159592812666 0  0.315570863666392 0.3499038328432952 0  0.43737589643705 0.003767781375474147 0  0.3480437072584214 -0.06190943679164183 0  0.3704548124556613 0.06095691071954262 0  0.3139725644615085 -0.3495769689516506 0  0.5 -0.1875 0  -0.5 -0.0625 0  -0.5 0.3125 0  -0.1875 -0.5 0  -0.3125 0.5 0  -0.3125 -0.5 0  -0.5 -0.3125 0  0.5 0.3125 0  -0.0625 0.5 0  0.5 0.0625 0  0.0625 -0.5 0  0.1875 -0.5 0  0.3125 -0.5 0  0.1875 0.5 0  0.0625 0.5 0  0.5 -0.3125 0  -0.4375 0.5 0  -0.5 0.4375 0  -0.0625 -0.5 0  -0.3740130545720807 0.4376162026208867 0  0.2356432480937504 -0.1203529309141897 0  0.2354253261260549 0.120280228505195 0  -0.4358389466402443 0.374436564627095 0  -0.1837098359759774 0.1929485386776155 0  -0.1210077767998366 -0.2331474219302516 0  -0.4388230181844467 -0.3736756227341544 0  0.2385916116983025 -0.2446215854929363 0  0.01618154697154811 -0.392205807603664 0  0.3033224724982568 0.1345019962362828 0  0.1269856324747013 0.4273682536406486 0  -0.2618767198442009 -0.02513308225372456 0  -0.1869024341550137 0.3523407916866587 0  0.4460792014197047 0.2150519456240759 0  -0.228067921023645 -0.1261420173261541 0  0.4375111104956734 0.3693541778847931 0  -0.2344434115929863 0.441225502334267 0  -0.1349409233725989 -0.3081519167298867 0  0.2361921270004774 0.236858231392783 0  -0.1134625589296566 0.3058057213872041 0  0.1364902237265291 -0.2193600350069504 0  -0.231009496195906 -0.2899916451544192 0  -0.4420301468408164 -0.0153626464053197 0  -0.3638407636123014 0.04989392276612995 0  -0.2281634567999949 -0.2293698735254731 0  -0.2404608239114909 0.2480193450766527 0  0.1548586079872366 0.3161601351946364 0  -0.2905808065687782 -0.2309892133488608 0  0.1583090638615736 -0.3223807786382032 0  0.3037640590628244 -0.1367963242859415 0  0.441474411355182 -0.3710236808063671 0  -0.1184457037417267 0.4214861255011078 0  0.3280783743867655 -0.2503846686276005 0  0.4421147536667354 -0.254616967737483 0  -0.4419160956032748 -0.2544205585064326 0  -0.3074463395544132 -0.1359279022829991 0  0.3366964226424555 0.256991018383815 0  -0.4508616135570574 0.21875 0  -0.3395120610056381 0.2372377549435862 0  -0.2261617732606898 -0.4465036260914809 0  0.2350726063974556 0.2936290504086719 0  0.007756726855498133 0.253726523067807 0  0.2816091581197124 -0.4531847002458751 0  0.002693579241951911 -0.4452927028974097 0  0.2614770372227774 0.3432624384800261 0  0.2905620892368345 0.2263682042801985 0  -0.2876366597373845 0.2178464403043631 0  0.2807413030307
[...]
<PointData  Vectors="f_44"> 
<DataArray  type="Float64"  Name="f_44"  NumberOfComponents="3" format="ascii">3.4010534026928663e-02 8.1632653061224511e-02 0.0000000000000000e+00  -1.3734598566339152e-02 2.7725699924349957e-02 0.0000000000000000e+00  1.3380121022562483e-02 2.7230024734700296e-02 0.0000000000000000e+00  -3.3905888566377572e-02 8.1632653061224511e-02 0.0000000000000000e+00  0.0000000000000000e+00 0.0000000000000000e+00 0.0000000000000000e+00  0.0000000000000000e+00 0.0000000000000000e+00 0.0000000000000000e+00  0.0000000000000000e+00 0.0000000000000000e+00 0.0000000000000000e+00  0.0000000000000000e+00 0.0000000000000000e+00 0.0000000000000000e+00  0.0000000000000000e+00 0.0000000000000000e+00 0.0000000000000000e+00  0.0000000000000000e+00 0.0000000000000000e+00 0.0000000000000000e+00  0.0000000000000000e+00 0.0000000000000000e+00 0.0000000000000000e+00  0.0000000000000000e+00 0.0000000000000000e+00 0.0000000000000000e+00  0.0000000000000000e+00 0.0000000000000000e+00 0.0000000000000000e+00  0.0000000000000000e+00 0.0000000000000000e+00 0.0000000000000000e+00  0.0000000000000000e+00 0.0000000000000000e+00 0.0000000000000000e+00  0.0000000000000000e+00 0.0000000000000000e+00 0.0000000000000000e+00  0.0000000000000000e+00 0.0000000000000000e+00 0.0000000000000000e+00  0.0000000000000000e+00 0.0000000000000000e+00 0.0000000000000000e+00  0.0000000000000000e+00 0.0000000000000000e+00 0.0000000000000000e+00  0.0000000000000000e+00 0.0000000000000000e+00 0.0000000000000000e+00  0.0000000000000000e+00 0.0000000000000000e+00 0.0000000000000000e+00  0.0000000000000000e+00 0.0000000000000000e+00 0.0000000000000000e+00  0.0000000000000000e+00 0.0000000000000000e+00 0.0000000000000000e+00  0.0000000000000000e+00 0.0000000000000000e+00 0.0000000000000000e+00  0.0000000000000000e+00 0.0000000000000000e+00 0.0000000000000000e+00  0.0000000000000000e+00 0.0000000000000000e+00 0.0000000000000000e+00  0.0000000000000000e+00 0.0000000000000000e+00 0.0000000000000000e+00  0.0000000000000000e+00 0.0000000000000000e+00 0.0000000000000000e+00  0.0000000000000000e+00 0.0000000000000000e+00 0.0000000000000000e+00  0.0000000000000000e+00 0.0000000000000000e+00 0.0000000000000000e+00  0.0000000000000000e+00 0.0000000000000000e+00 0.0000000000000000e+00  0.0000000000000000e+00 0.0000000000000000e+00 0.0000000000000000e+00  0.0000000000000000e+00 0.0000000000000000e+00 0.0000000000000000e+00  0.0000000000000000e+00 0.0000000000000000e+00 0.0000000000000000e+00  0.0000000000000000e+00 0.0000000000000000e+00 0.0000000000000000e+00  0.0000000000000000e+00 0.0000000000000000e+00 0.0000000000000000e+00  0.0000000000000000e+00 0.0000000000000000e+00 0.0000000000000000e+00  0.0000000000000000e+00 0.0000000000000000e+00 0.0000000000000000e+00  0.0000000000000000e+00 0.0000000000000000e+00 0.0000000000000000e+00  0.0000000000000000e+00 0.0000000000000000e+00 0.0000000000000000e+00  0.0000000000000000e+00 0.0000000000000000e+00 0.0000000000000000e+00  0.0000000000000000e+00 0.0000000000000000e+00 0.0000000000000000e+00  0.0000000000000000e+00 0.0000000000000000e+00 0.0000000000000000e+00  0.0000000000000000e+00 0.0000000000000000e+00 0.0000000000000000e+00  0.0000000000000000e+00 0.0000000000000000e+00 0.0000000000000000e+00  0.0000000000000000e+00 0.0000000000000000e+00 0.0000000000000000e+00  0.0000000000000000e+00 0.0000000000000000e+00 0.0000000000000000e+00  0.0000000000000000e+00 0.0000000000000000e+00 0.0000000000000000e+00  0.0000000000000000e+00 0.0000000000000000e+00 0.0000000000000000e+00  0.0000000000000000e+00 0.0000000000000000e+00 0.0000000000000000e+00  0.0000000000000000e+00 0.0000000000000000e+00 0.0000000000000000e+00  0.0000000000000000e+00 0.0000000000000000e+00 0.0000000000000000e+00  0.0000000000000000e+00 0.0000000000000000e+00 0.0000000000000000e+00  0.0000000000000000e+00 0.0000000000000000e+00 0.0000000000000000e+00  0.0000000000000000e+00 0.0000000000000000e+00 0.0000000000000000e+00  0.0000000000000000e+00 0.0000000000000000e+00 0.0000000000000000e+00  0.0000000000000000e+00 0.0000000000000000e+00 0.0000000000000000e+00  0.0000000000000000e+00 0.0000000000000000e+00 0.0000000000000000e+00  0.0000000000000000e+00 0.0000000000000000e+00 0.0000000000000000e+00  0.0000000000000000e+00 0.0000000000000000e+00 0.0000000000000000e+00  0.0000000000000000e+00 0.0000000000000000e+00 0.0000000000000000e+00  0.0000000000000000e+00 0.0000000000000000e+00 0.0000000000000000e+00  0.0000000000000000e+00 0.0000000000000000e+00 0.0000000000000000e+00  -1.9108104879655144e-04 4.9287454980294536e-03 0.0000000000000000e+00  1.4729289644519337e-04 8.1632653061224483e-02 0.0000000000000000e+00  6.8363094089906977e-03 4.3116178139837653e-02 0.0000000000000000e+00  -6.7897843611529314e-03 4.2724724550491325e-02 0.0000000000000000e+00  1.1476997327310612e-02 1.3585385994028752e-02 0.0000000000000000e+00  -2.3720821953033662e-02 8.1632653061224483e-02 0.0000000000000000e+00  -2.5934276100930759e-02 6.2038689148708887e-02 0.0000000000000000e+00  4.4328505289945742e-03 2.9111211502403814e-02 0.0000000000000000e+00  2.3914003736413555e-02 8.1632653061224511e-02 0.0000000000000000e+00  -1.1851128972649663e-02 1.3853209467510393e-02 0.0000000000000000e+00  -4.5600017176402148e-03 2.9599566389866702e-02 0.0000000000000000e+00  2.6006847345993355e-02 6.2264627500718234e-02 0.0000000000000000e+00  -2.2065072860497532e-02 5.1137777217679294e-02 0.0000000000000000e+00  5.6882353724920015e-03 1.5102097332997066e-02 0.0000000000000000e+00  2.1530314303224947e-02 4.9476376368158020e-02 0.0000000000000000e+00  -5.8652711033133666e-03 1.5796142018253950e-02 0.0000000000000000e+00  1.3347221750150122e-02 5.0537087225320777e-02 0.0000000000000000e+00  2.1876875225119840e-03 2.4454768069332399e-02 0.0000000000000000e+00  -1.3128333409976123e-02 5.1085074618603926e-02 0.0000000000000000e+00  -1.2892065769460902e-02 4.0064591785913733e-02 0.0000000000000000e+00  -2.0781011532748374e-03 2.4847124451559205e-02 0.0000000000000000e+00  -3.8613584870738410e-03 5.7073855351959177e-03 0.0000000000000000e+00  3.6840167219019167e-03 5.6400533708023323e-03 0.0000000000000000e+00  1.1703691288209613e-02 3.8699620744443622e-02 0.0000000000000000e+00  3.2051042923704809e-02 7.1715037554045361e-02 0.0000000000000000e+00  8.1870710937326559e-03 2.7283263931941758e-02 0.0000000000000000e+00  -1.3682818905534870e-02 2.1430227455930144e-02 0.0000000000000000e+00  -3.1965466968983960e-02 7.1596665929148082e-02 0.0000000000000000e+00  3.0200396559490687e-02 8.1632653061224497e-02 0.0000000000000000e+00  1.3321594331798850e-02 2.1049360638078093e-02 0.0000000000000000e+00  -8.4259536124313486e-03 2.7778796567451598e-02 0.0000000000000000e+00  -3.0069081373416205e-02 8.1632653061224497e-02 0.0000000000000000e+00  -8.1655246045167181e-05 2.3347957966004021e-03 0.0000000000000000e+00  1.5057632099431151e-04 4.9471005459826835e-02 0.0000000000000000e+00  1.6592422491399486e-02 5.2798286680652236e-02 0.0000000000000000e+00  -7.0228286382545300e-03 7.4414001941397233e-03 0.0000000000000000e+00  -2.1383858746631908e-04 3.4778282862577774e-02 0.0000000000000000e+00  -1.6526627393828871e-02 5.2486031537299804e-02 0.0000000000000000e+00  1.9075216383619158e-04 3.4331160946026944e-02 0.0000000000000000e+00  6.6548221298897607e-03 7.3076713341792927e-03 0.0000000000000000e+00  1.3745548253669006e-02 8.1632653061224497e-02 0.0000000000000000e+00  -1.3491268547060073e-02 8.1632653061224497e-02 0.0000000000000000e+00  -3.8714369834750512e-03 3.1696218859733977e-02 0.0000000000000000e+00  2.8384303076016044e-02 6.6887026546952458e-02 0.0000000000000000e+00  3.8211618066788049e-03 3.2635835315773708e-02 0.0000000000000000e+00  2.2505945075628045e-02 6.1208884056605219e-02 0.0000000000000000e+00  8.1959482026024572e-03 2.1194820065963734e-02 0.0000000000000000e+00  -8.4675137232533178e-03 2.1628739039707190e-02 0.0000000000000000e+00  -2.8523408542240045e-02 6.7421733856602481e-02 0.0000000000000000e+00  -3.7133576240933963e-03 6.8338857654822805e-03 0.0000000000000000e+00  -3.7836499388275461e-03 1.2960455122794142e-02 0.0000000000000000e+00  1.5008219828952667e-02 3.3725301942997825e-02 0.0000000000000000e+00  4.9004200251397938e-03 2.3405162206133177e-02 0.0000000000000000e+00  -1.4879814972573204e-02 3.3762194769299377e-02 0.0000000000000000e+00  -1.3704131384790522e-02 3.2562609962855427e-02 0.0000000000000000e+00  3.7283204322396497e-03 1.2657213137321360e-02 0.0000000000000000e+00  3.5244779190694861e-03 6.4234869691288873e-03 0.0000000000000000e+00  -4.8687868209594878e-03 2.4030738847991034e-02 0.0000000000000000e+00  -7.0381701126310771e-03 1.2107604059827939e-02 0.0000000000000000e+00  -2.4347807538886733e-02 6.5167779582233742e-02 0.0000000000000000e+00  -2.1992290772772486e-02 5.2753870549998493e-02 0.0000000000000000e+00  7.7310897546106630e-03 1.4444181164367067e-02 0.0000000000000000e+00  1.3138632219528051e-02 3.0798847388093270e-02 0.0000000000000000e+00  2.1055091523145299e-02 5.1737498368135577e-02 0.0000000000000000e+00  -7.1184160124777426e-03 2.7781143615737535e-02 0.0000000000000000e+00  3.6821080532879386e-03 2.3067830345178179e-02 0.0000000000000000e+00  -1.7875612777013597e-03 2.6175496333976709e-03 0.0000000000000000e+00  1.4720180394910212e-03 1.6207662005780808e-02 0.0000000000000000e+00  5.9559296688403290e-03 2.8584483802883524e-02 0.0000000000000000e+00  -6.3073331002636282e-03 2.4550671996337061e-02 0.0000000000000000e+00  1.6364849870969258e-03 2.5328311476639732e-03 0.0000000000000000e+00  -1.8325668889247282e-03 1.5380303549015944e-02 0.0000000000000000e+00  -1.8982089149122784e-02 6.8260491418983008e-02 0.0000000000000000e+00  -1.7555879331928883e-03 3.9940438396240145e-03 0.0000000000000000e+00  6.8610442139508485e-03 9.5746987571729107e-03 0.0000000000000000e+00  2.4044679011027250e-03 4.5645043750584683e-03 0.0000000000000000e+00  -1.0173395041507105e-02 4.2281424429018749e-02 0.0000000000000000e+00  -7.3442354689764195e-03 6.5171252426546394e-02 0.0000000000000000e+00  7.1947209520275678e-03 6.6152808341441646e-02 0.0000000000000000e+00  -2.7642026058616338e-02 6.3113816798717623e-02 0.0000000000000000e+00  -6.6377874767330454e-03 2.5690919879611949e-02 0.0000000000000000e+00  -9.8648151963203479e-03 1.7310217502354692e-02 0.0000000000000000e+00  6.4559978633385758e-03 2.5251724111786097e-02 0.0000000000000000e+00  2.7066131821618884e-02 7.2630111998600491e-02 0.0000000000000000e+00  2.7986414620373944e-02 6.3763523243272391e-02 0.0000000000000000e+00  3.1811650259099149e-02 7.5426351556248536e-02 0.0000000000000000e+00  1.1513379208981989e-02 4.7926160493810363e-02 0.0000000000000000e+00  -2.8740961533287330e-03 3.8212845347466336e-02 0.0000000000000000e+00  1.0586105469652987e-02 2.7195930257526202e-02 0.0000000000000000e+00  -1.3766870096206170e-02 2.4771642210866009e-02 0.0000000000000000e+00  -3.3424641857489806e-02 7.6556361831199779e-02 0.0000000000000000e+00  1.9367382086135941e-02 8.1632653061224483e-02 0.0000000000000000e+00  9.8587170928667381e-04 3.3310145549881154e-02 0.0000000000000000e+00  5.3645152501970821e-03 1.0161743815420534e-02 0.0000000000000000e+00  -1.9319916370590471e-02 5.1921887073637443e-02 0.0000000000000000e+00  2.8039332303957791e-03 2.8508390942976733e-02 0.0000000000000000e+00  -6.5349924978460533e-03 8.6175655202051712e-03 0.0000000000000000e+00  -2.1515033095736019e-02 5.7307360436911425e-02 0.0000000000000000e+00  -2.6024908126628873e-03 3.1739267579129794e-02 0.0000000000000000e+00  -1.9119410406954456e-03 2.1168250203413168e-02 0.0000000000000000e+00  7.0614447861001269e-03 2.2689099333721610e-02 0.0000000000000000e+00  -2.7530795913677823e-03 2.8711310923618068e-02 0.0000000000000000e+00  -1.0530495153488939e-03 3.2206915552535458e-02 0.0000000000000000e+00  -1.7411520972069477e-02 4.9390716112641293e-02 0.0000000000000000e+00  1.8255220100839870e-02 6.5784364352025948e-02 0.0000000000000000e+00  1.6188975645829100e-02 4.1361257127248682e-02 0.0000000000000000e+00  -6.5160336270586707e-03 2.1207326941957573e-02 0.0000000000000000e+00  9.5877499561113320e-03 4.1263655846120191e-02 0.0000000000000000e+00  2.4660983117485758e-02 5.6878146505680696e-02 0.0000000000000000e+00  -7.4710054050792767e-03 1.6666919790809920e-02 0.0000000000000000e+00  -2.7307411797463425e-02 8.1632653061224497e-02 0.0000000000000000e+00  9.9832765837540062e-03 1.8576959094552706e-02 0.0000000000000000e+00  -2.5391097902848131e-02 5.8586859763978462e-02 0.0000000000000000e+00  1.6668189656876730e-02 4.8529146766464276e-02 0.0000000000000000e+00  1.3410215807675371e-02 2.4329882119919904e-02 0.0000000000000000e+00  -1.0885451440521396e-02 2.7695482888616847e-02 0.0000000000000000e+00  -3.2204597010990689e-02 8.1632653061224497e-02 0.0000000000000000e+00  6.3450833660445519e-03 2.0463283689995119e-02 0.0000000000000000e+00  -4.9562958374472109e-03 8.6347097568721786e-03 0.0000000000000000e+00  4.0953714723337732e-03 1.9752339003774849e-02 0.0000000000000000e+00  -2.7885985343392684e-02 7.2627978508596383e-02 0.0000000000000000e+00  -4.0857386258617220e-03 2.0183329084205254e-02 0.0000000000000000e+00  -1.7078779423162192e-02 4.2874168821837505e-02 0.0000000000000000e+00  1.0163007608019721e-02 2.3905639859627972e-02 0.0000000000000000e+00  2.0109135622256656e-02 4.8500116882428161e-02 0.0000000000000000e+00  -1.0864903194798485e-02 2.3150415758013181e-02 0.0000000000000000e+00  -3.1344854104474344e-02 7.4446766849367838e-02 0.0000000000000000e+00  5.4936353888928589e-05 2.4634766251306006e-02 0.0000000000000000e+00  8.1035664917202799e-05 1.1195384847946304e-03 0.0000000000000000e+00  2.8473973517939457e-03 6.0129313240067147e-03 0.0000000000000000e+00  2.5677750439643675e-02 6.3287985827583437e-02 0.0000000000000000e+00  -1.8800587084185302e-03 3.3211979414936848e-03 0.0000000000000000e+00  1.7049468772925844e-03 3.2890180110834045e-03 0.0000000000000000e+00  -1.0891793352504779e-02 2.2573793352078701e-02 0.0000000000000000e+00  4.8583514245441970e-03 6.5297973925089172e-03 0.0000000000000000e+00  9.2614256025197687e-03 2.1471074189368715e-02 0.0000000000000000e+00  -4.3812379251660805e-03 5.8441630988822282e-03 0.0000000000000000e+00  -7.9910660704603535e-04 3.1622171654488967e-02 0.0000000000000000e+00  -2.7764138027628962e-03 6.1957243644759534e-03 0.0000000000000000e+00  -9.1284175781495766e-03 1.9996641706806255e-02 0.0000000000000000e+00  2.1583222566030281e-02 5.7576174766973361e-02 0.0000000000000000e+00  7.1532379571846074e-03 5.0375438660658474e-02 0.0000000000000000e+00  -6.6292874157309395e-03 4.4385691747353635e-02 0.0000000000000000e+00  1.2563059498851169e-04 6.5690097051539192e-02 0.0000000000000000e+00  -2.5273434187805623e-02 6.0736972575025770e-02 0.0000000000000000e+00  -5.6665274266320372e-03 3.8166956273397987e-02 0.0000000000000000e+00  -3.4343184809290971e-05 2.5273677279531358e-02 0.0000000000000000e+00  -8.1198743978494990e-03 3.5592168428794584e-02 0.0000000000000000e+00  7.0351025893010651e-03 1.7099668804827023e-02 0.0000000000000000e+00  2.5425221325995557e-03 3.1262672624611153e-02 0.0000000000000000e+00  2.8959375527936771e-03 3.8639388943876370e-02 0.0000000000000000e+00  2.9546614212005617e-02 6.6940363598251923e-02 0.0000000000000000e+00  -9.7895483441446836e-03 1.0306050250055172e-02 0.0000000000000000e+00  2.7471018944670793e-02 8.1632653061224483e-02 0.0000000000000000e+00  -1.3113269520755984e-02 1.7697701948718027e-02 0.0000000000000000e+00  -6.3908232526107582e-03 2.8326951239888504e-02 0.0000000000000000e+00  -2.9463880654564102e-02 6.6763481263532112e-02 0.0000000000000000e+00  7.2162257808411493e-03 8.1632653061224497e-02 0.0000000000000000e+00  -1.1453825057711522e-02 4.7573008204487122e-02 0.0000000000000000e+00  3.3606044806020969e-03 5.5177822312723421e-03 0.0000000000000000e+00  9.4159274074171184e-03 1.0093571254899760e-02 0.0000000000000000e+00  1.2752770745306121e-02 1.7368727943628735e-02 0.0000000000000000e+00  -1.9135645611430808e-02 8.1632653061224511e-02 0.0000000000000000e+00  -6.9302346083041722e-03 8.1632653061224497e-02 0.0000000000000000e+00  6.2069389574590040e-03 2.7831853390057261e-02 0.0000000000000000e+00  3.2324406842612952e-02 8.1632653061224483e-02 0.0000000000000000e+00  3.3523092937078253e-02 7.6622374833489992e-02 0.0000000000000000e+00  -3.7469433567872807e-03 5.5928121291406729e-03 0.0000000000000000e+00  2.9733386063025381e-02 7.4260241303071517e-02 0.0000000000000000e+00  2.3844674884487393e-03 9.2116881568166387e-03 0.0000000000000000e+00  -7.2596559245050006e-03 2.0005200547993707e-02 0.0000000000000000e+00  3.0371906610573422e-02 6.9455044170633487e-02 0.0000000000000000e+00  1.0610529062057790e-02 2.1646077382973524e-02 0.0000000000000000e+00  -1.9918398887796367e-03 2.8787713999508962e-03 0.0000000000000000e+00  -8.4542303184443474e-03 2.5120815804723889e-02 0.0000000000000000e+00  4.4318240898074610e-03 1.1019108437178002e-02 0.0000000000000000e+00  4.1956741597889963e-04 3.3545420151339235e-03 0.0000000000000000e+00  -1.1764871968129365e-02 3.3529570235809443e-02 0.0000000000000000e+00  -1.3604828170201306e-02 6.5105032741081190e-02 0.0000000000000000e+00  3.7888767552169867e-05 1.4326049311531530e-02 0.0000000000000000e+00  1.8302529153953685e-02 5.2323153961310681e-02 0.0000000000000000e+00  -2.2262391136718140e-02 5.5510592936072051e-02 0.0000000000000000e+00  -2.4342991803131472e-03 8.6389861585754110e-03 0.0000000000000000e+00  -3.0149691760191513e-02 6.8911615562845460e-02 0.0000000000000000e+00  2.2679358368792955e-02 7.1228004365062977e-02 0.0000000000000000e+00  -3.3583505223984504e-03 5.2421595111211824e-03 0.0000000000000000e+00  -1.6677550180605599e-02 3.7092813397125807e-02 0.0000000000000000e+00  1.1592525330774284e-02 3.6125383391819497e-02 0.0000000000000000e+00  2.0062439412205065e-03 3.0944218451225513e-03 0.0000000000000000e+00  -5.0996021787290445e-03 1.1077029180145801e-02 0.0000000000000000e+00  4.5575172439575595e-03 3.7662172737895093e-02 0.0000000000000000e+00  7.1721889279089965e-03 3.4349538421447383e-02 0.0000000000000000e+00  -4.1903624649751257e-03 1.0232866845040132e-02 0.0000000000000000e+00  1.7700250654596534e-02 3.9644092225249977e-02 0.0000000000000000e+00  -1.5027072267530294e-02 4.2052966024849148e-02 0.0000000000000000e+00  -4.8580955675761057e-03 1.5866404267159944e-02 0.0000000000000000e+00  3.9028604809511537e-03 6.5135349027038384e-03 0.0000000000000000e+00  2.9796119142171582e-03 1.7721658780431779e-02 0.0000000000000000e+00  8.1274359479601502e-03 2.4833614748605216e-02 0.0000000000000000e+00  1.3008858547144252e-02 6.3575063235593518e-02 0.0000000000000000e+00  5.2121097718801053e-03 1.8647130869508918e-02 0.0000000000000000e+00  4.9865343418846004e-03 2.6572348647684891e-02 0.0000000000000000e+00  -5.1091166310330248e-03 2.7002560470189528e-02 0.0000000000000000e+00  -2.9766617572844472e-03 1.8523930419474047e-02 0.0000000000000000e+00  -2.1893382938694732e-02 5.0842096088450126e-02 0.0000000000000000e+00  2.2728624813600471e-02 5.6429420032336357e-02 0.0000000000000000e+00  2.0875887590609161e-02 4.9137275891547968e-02 0.0000000000000000e+00  -8.6246992519544256e-03 1.1977768114970566e-02 0.0000000000000000e+00  -1.9492037609290289e-02 4.5925061238450651e-02 0.0000000000000000e+00  -5.9243505416591859e-04 1.5323716662250407e-02 0.0000000000000000e+00  9.8237600745822197e-03 1.5218125009337528e-02 0.0000000000000000e+00  -4.6839475026737594e-05 4.0828514094492559e-03 0.0000000000000000e+00  -2.2522505830468744e-02 5.6144667856510101e-02 0.0000000000000000e+00  -1.8348186535714336e-02 4.2479895127590962e-02 0.0000000000000000e+00  1.7782177525326254e-02 4.1347137102325376e-02 0.0000000000000000e+00  -2.5428805256251429e-02 7.4195655331449423e-02 0.0000000000000000e+00  7.3506457325479679e-03 1.8121884993833760e-02 0.0000000000000000e+00  2.4795016352429592e-02 5.8077073425166083e-02 0.0000000000000000e+00  1.6844409294654146e-02 4.5654781518310650e-02 0.0000000000000000e+00  -5.4700258163182672e-03 1.983507956339932