<?xml version="1.0"?>
<VTKFile type="UnstructuredGrid"  version="0.1"  >
<UnstructuredGrid>
<Piece  NumberOfPoints="5173" NumberOfCells="9966">
<Points>
<DataArray  type="Float64"  NumberOfComponents="3"  format="ascii">-0.5 0.5 0  -0.5 -0.5 0  0.5 -0.5 0  0.5 0.5 0  0.1998669600420274 0.02125869712947308 0  0.201 0 0  0.1998669600420274 -0.02125869712947312 0  0.1964806779635733 -0.04227652472592507 0  0.1908795216936763 -0.06281534240438978 0  0.1831269545709826 -0.08264243715367564 0  0.1733108162787611 -0.1015331600677681 0  0.1615423275861927 -0.1192734717077003 0  0.1479548301726135 -0.1356623672539232 0  0.1327022758130076 -0.1505141539712278 0  0.1159574820428814 -0.1636605551816338 0  0.09791017406652992 -0.1749526169063923 0  0.07876483509466403 -0.1842623955740826 0  0.05873838946792427 -0.1914844076724011 0  0.03805774481742277 -0.1965368249185042 0  0.01695722111061653 -0.1993624014061501 0  -0.004324104287555032 -0.1999291222246905 0  -0.02554510545674447 -0.1982305662008014 0  -0.04646533997422303 -0.194285978652942 0  -0.06684777322360611 -0.1881400533342067 0  -0.08646146409177112 -0.1798624260342438 0  -0.1050841816239485 -0.1695468855779342 0  -0.1225049229892384 -0.1573103111605285 0  -0.138526304226997 -0.143291348059663 0  -0.1529667966859812 -0.127648836728964 0  -0.165662783816503 -0.1105600130722386 0  -0.1764704150113143 -0.0922185002898652 0  -0.1852672354904677 -0.07283211505056446 0  -0.1919535737629032 -0.05262051284550421 0  -0.1964536709442689 -0.03181269920381437 0  -0.1987165391353524 -0.0106444349684357 0  -0.1987165391353524 0.01064443496843575 0  -0.1964536709442689 0.03181269920381442 0  -0.1919535737629032 0.05262051284550433 0  -0.1852672354904677 0.07283211505056443 0  -0.1764704150113143 0.09221850028986515 0  -0.165662783816503 0.1105600130722387 0  -0.1529667966859812 0.1276488367289641 0  -0.1385263042269969 0.1432913480596631 0  -0.1225049229892383 0.1573103111605285 0  -0.1050841816239485 0.1695468855779342 0  -0.08646146409177108 0.1798624260342438 0  -0.06684777322360606 0.1881400533342067 0  -0.04646533997422297 0.194285978652942 0  -0.02554510545674437 0.1982305662008015 0  -0.004324104287554939 0.1999291222246905 0  0.01695722111061662 0.19936240140615 0  0.03805774481742286 0.1965368249185042 0  0.05873838946792424 0.1914844076724011 0  0.07876483509466414 0.1842623955740826 0  0.09791017406653006 0.1749526169063922 0  0.1159574820428814 0.1636605551816338 0  0.1327022758130078 0.1505141539712277 0  0.1479548301726135 0.1356623672539232 0  0.1615423275861927 0.1192734717077003 0  0.1733108162787612 0.101533160067768 0  0.1831269545709827 0.08264243715367564 0  0.1908795216936763 0.06281534240438975 0  0.1964806779635734 0.04227652472592486 0  0 -0.5 0  0 0.5 0  -0.5 0 0  0.5 0 0  0.25 -0.5 0  0.25 0.5 0  0.5 0.25 0  0.5 -0.25 0  -0.25 0.5 0  -0.25 -0.5 0  -0.5 -0.25 0  -0.5 0.25 0  0.2918258229480683 0.2918258229480682 0  0.2865867850624828 -0.2932931940421196 0  -0.2962949893701896 0.274449924397287 0  -0.2913160373738303 -0.2913160373738304 0  -0.125 0.3636995408959175 0  0.3637738468862107 -0.1261303957107176 0  0.125 0.3665964626830409 0  0.3640958654762797 0.1232161970438493 0  -0.3624000654276585 -0.1218337159209422 0  -0.125 -0.3668200952157802 0  0.125 -0.3712838880907947 0  -0.3600991828528437 0.1089843577122111 0  -0.5 0.375 0  0.5 -0.375 0  -0.375 -0.5 0  0.5 0.375 0  -0.375 0.5 0  0.375 -0.5 0  -0.5 -0.375 0  0.375 0.5 0  0.0006860903712339345 -0.3306266888645853 0  -0.000109901520948898 0.3746323380112415 0  -0.5 0.125 0  -0.125 -0.5 0  -0.5 -0.125 0  0.5 0.125 0  0.5 -0.125 0  0.125 -0.5 0  -0.125 0.5 0  0.125 0.5 0  0.3748576787807123 -0.001471205609738957 0  -0.3738828512115154 0.3738828512115154 0  -0.3827617049088436 -0.006210238480157219 0  -0.2429234745416257 0.3810213699917807 0  0.3769180353829246 -0.3769180353829246 0  -0.3777687524152424 -0.3777687524152424 0  0.3780704009792175 0.3780704009792175 0  -0.1776483227107271 -0.2618630460446135 0  -0.2604485542051718 -0.1787215021996984 0  -0.1798547561877991 0.2599748505350166 0  0.3864703130478905 -0.2380123189195306 0  0.1785319646943122 0.2625417448451246 0  0.261692611046212 0.1791168901036931 0  0.2607171500730768 -0.1799460669666111 0  0.1733970740599892 -0.2651674952354912 0  -0.3880520258539732 -0.2322407641539351 0  -0.2352016482221373 -0.388638232840279 0  0.2734696242623063 0.3964265996649794 0  0.3883795026617865 0.233417864889234 0  0.2738670858792859 -0.3976331321261044 0  -0.2491638954018168 0.1780101911767213 0  -0.3926686215746083 0.2165776265637375 0  0.07109213498061834 0.2869023807262104 0  -0.2934183534017453 0.03147305416145122 0  -0.08119265072200343 -0.2826195781877594 0  0.2836913223256923 -0.07709296110799269 0  -0.0558729689268372 0.2928347535333279 0  0.2830965643121598 0.07693076420704528 0  0.08122371629649494 -0.2825469282280794 0  -0.2767834230915197 -0.08819590430941976 0  0.1875 0.4332982313415205 0  -0.04303186331845871 -0.4151376431551652 0  0.190970733019215 -0.4322714131851434 0  0.06249999999999999 -0.4356419440453974 0  0.4328061849987423 0.06633847947711793 0  0.0664712649494027 0.4332982313415205 0  -0.06249999999999998 0.4373709104419552 0  0.4341377633941729 0.309372588857957 0  -0.4374372828954266 -0.3125 0  -0.3104572497507675 -0.4353019888851174 0  0.4374701104890421 -0.3125 0  -0.3116291712721947 0.4366347031852421 0  -0.4374901042687089 0.3125 0  -0.4363926600558238 0.4363926600558238 0  -0.5 0.0625 0  0.5 -0.0625 0  0.5 -0.4375 0  -0.4375 -0.5 0  0.5 0.4375 0  -0.1875 0.5 0  -0.4323246583268963 -0.07454303397230311 0  0.2154950463309389 -0.3375719358844427 0  0.206977802238796 0.342973363124546 0  0.4322596267199844 -0.1704803839098939 0  -0.1690769129391571 -0.4334100476078901 0  0.5 0.1875 0  -0.5 -0.1875 0  0.2967149326504868 -2.965984816150069e-05 0  -0.2579082457853068 0.1006999711688991 0  -0.4261732609354634 -0.1652001701086123 0  0.4197274728231854 -0.06828306080156128 0  0.4316260558094222 0.15625 0  -0.1765935890523967 0.4225213035878151 0  -0.326101012911042 0.1780020696215199 0  -0.3639018823524438 -0.3051829074366289 0  -0.4219359613016062 0.06132313683084987 0  -0.368871881750981 0.2861301036496543 0  -0.3031928482819811 -0.3630024307590357 0  0.3125 0.5 0  0.3355547846059301 -0.437829382399898 0  0.3620936304880762 0.3078025934392096 0  -0.4265460575686851 0.1475964618934338 0  0.4375 -0.5 0  -0.5 -0.4375 0  0.4375 0.5 0  0.3587983613906559 -0.3058906763528768 0  -0.1889171018677358 -0.3331988582480375 0  0.3319769361362775 -0.1908238194547704 0  0.3337713745363715 0.4328433800405805 0  -0.3319644446835826 -0.1870886352472088 0  0.3329253892881625 0.1878611701133833 0  0.4281511341447153 -0.4281511341447153 0  -0.232840147849867 0.3093215053326949 0  -0.40625 -0.4395608850352885 0  0.428794887401249 0.428794887401249 0  -0.3380841551254475 -0.05794700007688498 0  0.008054260670409629 -0.2648994211243904 0  0.1899220001124564 -0.1947534447033338 0  -0.3080416507322476 0.3708200057439822 0  -0.06307278823153059 -0.3455430469652901 0  0.06447087227249242 -0.3459780260685607 0  0.1914876772934198 0.1922953616824615 0  0.1267822167193652 -0.4357424153550361 0  -0.1100367963981227 0.2468729543145758 0  -0.1040301628609493 -0.4382371732506554 0  0.008496887133013969 0.3088587185741126 0  -0.1939711685411953 -0.1799889819170536 0  0.1169089524024441 0.2383640108781663 0  -0.5 0.1875 0  -0.06301873836730842 0.3744639870876723 0  0.0612272731888486 0.3516549422231338 0  0.0001842875295821901 0.4373159592812666 0  0.315570863666392 0.3499038328432952 0  0.43737589643705 0.003767781375474147 0  0.3480437072584214 -0.06190943679164183 0  0.3704548124556613 0.06095691071954262 0  0.3139725644615085 -0.3495769689516506 0  0.5 -0.1875 0  -0.5 -0.0625 0  -0.5 0.3125 0  -0.1875 -0.5 0  -0.3125 0.5 0  -0.3125 -0.5 0  -0.5 -0.3125 0  0.5 0.3125 0  -0.0625 0.5 0  0.5 0.0625 0  0.0625 -0.5 0  0.1875 -0.5 0  0.3125 -0.5 0  0.1875 0.5 0  0.0625 0.5 0  0.5 -0.3125 0  -0.4375 0.5 0  -0.5 0.4375 0  -0.0625 -0.5 0  -0.3740130545720807 0.4376162026208867 0  0.2356432480937504 -0.1203529309141897 0  0.2354253261260549 0.120280228505195 0  -0.4358389466402443 0.374436564627095 0  -0.1837098359759774 0.1929485386776155 0  -0.1210077767998366 -0.2331474219302516 0  -0.4388230181844467 -0.3736756227341544 0  0.2385916116983025 -0.2446215854929363 0  0.01618154697154811 -0.392205807603664 0  0.3033224724982568 0.1345019962362828 0  0.1269856324747013 0.4273682536406486 0  -0.2618767198442009 -0.02513308225372456 0  -0.1869024341550137 0.3523407916866587 0  0.4460792014197047 0.2150519456240759 0  -0.228067921023645 -0.1261420173261541 0  0.4375111104956734 0.3693541778847931 0  -0.2344434115929863 0.441225502334267 0  -0.1349409233725989 -0.3081519167298867 0  0.2361921270004774 0.236858231392783 0  -0.1134625589296566 0.3058057213872041 0  0.1364902237265291 -0.2193600350069504 0  -0.231009496195906 -0.2899916451544192 0  -0.4420301468408164 -0.0153626464053197 0  -0.3638407636123014 0.04989392276612995 0  -0.2281634567999949 -0.2293698735254731 0  -0.2404608239114909 0.2480193450766527 0  0.1548586079872366 0.3161601351946364 0  -0.2905808065687782 -0.2309892133488608 0  0.1583090638615736 -0.3223807786382032 0  0.3037640590628244 -0.1367963242859415 0  0.441474411355182 -0.3710236808063671 0  -0.1184457037417267 0.4214861255011078 0  0.3280783743867655 -0.2503846686276005 0  0.4421147536667354 -0.254616967737483 0  -0.4419160956032748 -0.2544205585064326 0  -0.3074463395544132 -0.1359279022829991 0  0.3366964226424555 0.256991018383815 0  -0.4508616135570574 0.21875 0  -0.3395120610056381 0.2372377549435862 0  -0.2261617732606898 -0.4465036260914809 0  0.2350726063974556 0.2936290504086719 0  0.007756726855498133 0.253726523067807 0  0.2816091581197124 -0.4531847002458751 0  0.002693579241951911 -0.4452927028974097 0  0.2614770372227774 0.3432624384800261 0  0.2905620892368345 0.2263682042801985 0  -0.2876366597373845 0.2178464403043631 0  0.2807413030307
[...]
<PointData  Vectors="f_44"> 
<DataArray  type="Float64"  Name="f_44"  NumberOfComponents="3" format="ascii">-7.8538533418884768e-03 2.0000000000000001e-01 0.0000000000000000e+00  -1.1726410784895994e-04 2.2611796633114102e-04 0.0000000000000000e+00  9.7452368385292866e-05 2.0324013624886770e-04 0.0000000000000000e+00  -8.1508737026434169e-03 2.0000000000000004e-01 0.0000000000000000e+00  0.0000000000000000e+00 0.0000000000000000e+00 0.0000000000000000e+00  0.0000000000000000e+00 0.0000000000000000e+00 0.0000000000000000e+00  0.0000000000000000e+00 0.0000000000000000e+00 0.0000000000000000e+00  0.0000000000000000e+00 0.0000000000000000e+00 0.0000000000000000e+00  0.0000000000000000e+00 0.0000000000000000e+00 0.0000000000000000e+00  0.0000000000000000e+00 0.0000000000000000e+00 0.0000000000000000e+00  0.0000000000000000e+00 0.0000000000000000e+00 0.0000000000000000e+00  0.0000000000000000e+00 0.0000000000000000e+00 0.0000000000000000e+00  0.0000000000000000e+00 0.0000000000000000e+00 0.0000000000000000e+00  0.0000000000000000e+00 0.0000000000000000e+00 0.0000000000000000e+00  0.0000000000000000e+00 0.0000000000000000e+00 0.0000000000000000e+00  0.0000000000000000e+00 0.0000000000000000e+00 0.0000000000000000e+00  0.0000000000000000e+00 0.0000000000000000e+00 0.0000000000000000e+00  0.0000000000000000e+00 0.0000000000000000e+00 0.0000000000000000e+00  0.0000000000000000e+00 0.0000000000000000e+00 0.0000000000000000e+00  0.0000000000000000e+00 0.0000000000000000e+00 0.0000000000000000e+00  0.0000000000000000e+00 0.0000000000000000e+00 0.0000000000000000e+00  0.0000000000000000e+00 0.0000000000000000e+00 0.0000000000000000e+00  0.0000000000000000e+00 0.0000000000000000e+00 0.0000000000000000e+00  0.0000000000000000e+00 0.0000000000000000e+00 0.0000000000000000e+00  0.0000000000000000e+00 0.0000000000000000e+00 0.0000000000000000e+00  0.0000000000000000e+00 0.0000000000000000e+00 0.0000000000000000e+00  0.0000000000000000e+00 0.0000000000000000e+00 0.0000000000000000e+00  0.0000000000000000e+00 0.0000000000000000e+00 0.0000000000000000e+00  0.0000000000000000e+00 0.0000000000000000e+00 0.0000000000000000e+00  0.0000000000000000e+00 0.0000000000000000e+00 0.0000000000000000e+00  0.0000000000000000e+00 0.0000000000000000e+00 0.0000000000000000e+00  0.0000000000000000e+00 0.0000000000000000e+00 0.0000000000000000e+00  0.0000000000000000e+00 0.0000000000000000e+00 0.0000000000000000e+00  0.0000000000000000e+00 0.0000000000000000e+00 0.0000000000000000e+00  0.0000000000000000e+00 0.0000000000000000e+00 0.0000000000000000e+00  0.0000000000000000e+00 0.0000000000000000e+00 0.0000000000000000e+00  0.0000000000000000e+00 0.0000000000000000e+00 0.0000000000000000e+00  0.0000000000000000e+00 0.0000000000000000e+00 0.0000000000000000e+00  0.0000000000000000e+00 0.0000000000000000e+00 0.0000000000000000e+00  0.0000000000000000e+00 0.0000000000000000e+00 0.0000000000000000e+00  0.0000000000000000e+00 0.0000000000000000e+00 0.0000000000000000e+00  0.0000000000000000e+00 0.0000000000000000e+00 0.0000000000000000e+00  0.0000000000000000e+00 0.0000000000000000e+00 0.0000000000000000e+00  0.0000000000000000e+00 0.0000000000000000e+00 0.0000000000000000e+00  0.0000000000000000e+00 0.0000000000000000e+00 0.0000000000000000e+00  0.0000000000000000e+00 0.0000000000000000e+00 0.0000000000000000e+00  0.0000000000000000e+00 0.0000000000000000e+00 0.0000000000000000e+00  0.0000000000000000e+00 0.0000000000000000e+00 0.0000000000000000e+00  0.0000000000000000e+00 0.0000000000000000e+00 0.0000000000000000e+00  0.0000000000000000e+00 0.0000000000000000e+00 0.0000000000000000e+00  0.0000000000000000e+00 0.0000000000000000e+00 0.0000000000000000e+00  0.0000000000000000e+00 0.0000000000000000e+00 0.0000000000000000e+00  0.0000000000000000e+00 0.0000000000000000e+00 0.0000000000000000e+00  0.0000000000000000e+00 0.0000000000000000e+00 0.0000000000000000e+00  0.0000000000000000e+00 0.0000000000000000e+00 0.0000000000000000e+00  0.0000000000000000e+00 0.0000000000000000e+00 0.0000000000000000e+00  0.0000000000000000e+00 0.0000000000000000e+00 0.0000000000000000e+00  0.0000000000000000e+00 0.0000000000000000e+00 0.0000000000000000e+00  0.0000000000000000e+00 0.0000000000000000e+00 0.0000000000000000e+00  0.0000000000000000e+00 0.0000000000000000e+00 0.0000000000000000e+00  0.0000000000000000e+00 0.0000000000000000e+00 0.0000000000000000e+00  0.0000000000000000e+00 0.0000000000000000e+00 0.0000000000000000e+00  0.0000000000000000e+00 0.0000000000000000e+00 0.0000000000000000e+00  -9.5919815687473862e-06 3.9121314347438433e-05 0.0000000000000000e+00  -7.9927473829546607e-03 2.0000000000000001e-01 0.0000000000000000e+00  4.4266441033721804e-05 3.6719554433122800e-04 0.0000000000000000e+00  -5.1265326943399726e-05 3.3789658356266674e-04 0.0000000000000000e+00  8.2438388013767952e-05 1.0202766075675506e-04 0.0000000000000000e+00  -8.0883678958178652e-03 1.9999999999999998e-01 0.0000000000000000e+00  -8.5345168320983475e-03 1.9936253044236157e-01 0.0000000000000000e+00  3.3994278763399476e-05 2.1834250578087994e-04 0.0000000000000000e+00  -7.9180568686091565e-03 2.0000000000000001e-01 0.0000000000000000e+00  -1.0235324559663487e-04 1.1380543832673417e-04 0.0000000000000000e+00  -4.4275691287953163e-05 2.4115216673553132e-04 0.0000000000000000e+00  -4.6072823962239346e-03 1.9623558634486568e-01 0.0000000000000000e+00  -8.1152231367372166e-03 1.9982824989165202e-01 0.0000000000000000e+00  4.1866370093569433e-05 1.1279512803037205e-04 0.0000000000000000e+00  -7.8499450378700583e-03 1.9979499545121326e-01 0.0000000000000000e+00  -5.3089976647754768e-05 1.2918406293507549e-04 0.0000000000000000e+00  -7.9403919685064519e-03 1.9992181442738557e-01 0.0000000000000000e+00  1.9659420094278174e-05 1.8272116052882697e-04 0.0000000000000000e+00  -8.0575779599856637e-03 1.9989405238850486e-01 0.0000000000000000e+00  -1.1860955133829220e-04 2.9370040716011198e-04 0.0000000000000000e+00  -2.6262533178138359e-05 2.0035517301146297e-04 0.0000000000000000e+00  -3.6464177968879199e-05 4.7181167832290242e-05 0.0000000000000000e+00  2.3924662802093683e-05 4.2304694870387846e-05 0.0000000000000000e+00  9.3731399584824187e-05 2.9853860183312749e-04 0.0000000000000000e+00  -7.8253256158296557e-03 1.9985108347732891e-01 0.0000000000000000e+00  5.9854417950497060e-05 2.0364838635783606e-04 0.0000000000000000e+00  -1.1691895124452147e-04 1.7532446860199982e-04 0.0000000000000000e+00  -8.1597393550314687e-03 1.9989145887430079e-01 0.0000000000000000e+00  -7.8895255097284067e-03 1.9999999999999998e-01 0.0000000000000000e+00  9.7001546200980063e-05 1.5776373429715699e-04 0.0000000000000000e+00  -7.4492164751981634e-05 2.2646404291515145e-04 0.0000000000000000e+00  -8.1218924435387564e-03 2.0000000000000001e-01 0.0000000000000000e+00  -4.9816196077947672e-06 1.8496809046932944e-05 0.0000000000000000e+00  -7.9973804834055796e-03 1.9989746030048294e-01 0.0000000000000000e+00  1.5301509666186639e-04 4.8544846883026414e-04 0.0000000000000000e+00  -6.3838892203274837e-05 6.1134548445577311e-05 0.0000000000000000e+00  -1.2159652023564838e-05 2.8563118992408861e-04 0.0000000000000000e+00  -1.5522196840041087e-04 4.4081762018496705e-04 0.0000000000000000e+00  4.4979229886750883e-06 2.6187125574484392e-04 0.0000000000000000e+00  4.4453038904187139e-05 5.5421368346205151e-05 0.0000000000000000e+00  -7.9482809962640750e-03 2.0000000000000001e-01 0.0000000000000000e+00  -8.0445992006670623e-03 2.0000000000000001e-01 0.0000000000000000e+00  -2.7019388785112496e-05 2.3571066319360629e-04 0.0000000000000000e+00  -7.8636559946876922e-03 1.9990206551912457e-01 0.0000000000000000e+00  1.7786282805754260e-05 2.6159695473950952e-04 0.0000000000000000e+00  -7.9071157570328437e-03 1.9993063100129069e-01 0.0000000000000000e+00  5.9806752504944075e-05 1.5883127602012772e-04 0.0000000000000000e+00  -7.4718196283754819e-05 1.7692465354999894e-04 0.0000000000000000e+00  -8.1337239304069553e-03 1.9991309359660703e-01 0.0000000000000000e+00  -3.3751971273252658e-05 5.6209660213766798e-05 0.0000000000000000e+00  -3.5011034926248038e-05 1.0424958780200752e-04 0.0000000000000000e+00  8.3375993349219660e-05 3.6424246937275152e-04 0.0000000000000000e+00  3.7923041292217485e-05 1.7577378739756832e-04 0.0000000000000000e+00  -7.6891708237969945e-03 1.9943841068720647e-01 0.0000000000000000e+00  -1.2399634507045701e-04 2.1285355987145854e-04 0.0000000000000000e+00  2.8449281723638489e-05 9.3367776788196580e-05 0.0000000000000000e+00  2.5080618659315766e-05 4.7634205358107172e-05 0.0000000000000000e+00  -4.6791143722749149e-05 1.9611788482572090e-04 0.0000000000000000e+00  -6.2737071403286637e-05 9.9605987675234099e-05 0.0000000000000000e+00  -8.1019698546804103e-03 1.9992114171511477e-01 0.0000000000000000e+00  -8.0890241462335515e-03 1.9950691078532978e-01 0.0000000000000000e+00  5.5404438246581162e-05 1.0817313735748816e-04 0.0000000000000000e+00  1.0883928195315957e-04 1.7976983643838435e-04 0.0000000000000000e+00  2.1926132777957795e-04 4.8138719266312770e-04 0.0000000000000000e+00  -8.1444626402648480e-03 1.9956070603457318e-01 0.0000000000000000e+00  2.1525846689255404e-05 1.6526668405347216e-04 0.0000000000000000e+00  -1.7713963010072525e-05 2.1700078074927548e-05 0.0000000000000000e+00  1.2390230480061692e-05 1.1669199299203910e-04 0.0000000000000000e+00  -8.6670165610676642e-03 1.9823999870748810e-01 0.0000000000000000e+00  -4.9734305170831844e-05 1.6513928528297169e-04 0.0000000000000000e+00  1.0021287755790680e-05 1.8911522835024074e-05 0.0000000000000000e+00  -1.9727801155591174e-05 1.1920689688557569e-04 0.0000000000000000e+00  -8.0703842021241368e-03 1.9994785413641089e-01 0.0000000000000000e+00  -2.0377022101636654e-05 3.2426548188369973e-05 0.0000000000000000e+00  4.7620159847112090e-05 7.1814267062245582e-05 0.0000000000000000e+00  1.2281552100253388e-05 3.5057388310552333e-05 0.0000000000000000e+00  -8.4130137902721261e-05 3.2834113091111090e-04 0.0000000000000000e+00  -8.0236675345750144e-03 1.9994590694741665e-01 0.0000000000000000e+00  -7.9675727141787171e-03 1.9995703062421549e-01 0.0000000000000000e+00  -8.1679665355569222e-03 1.9986724659420435e-01 0.0000000000000000e+00  -6.0326604957363817e-05 2.0978092307458380e-04 0.0000000000000000e+00  -8.5982540904772691e-05 1.4195326899899688e-04 0.0000000000000000e+00  4.8017589345690249e-05 1.8935397252529046e-04 0.0000000000000000e+00  -7.8991214743551336e-03 1.9995807612200056e-01 0.0000000000000000e+00  -7.7971567523899927e-03 1.9982514907738655e-01 0.0000000000000000e+00  -7.8669470266596146e-03 1.9994005882378277e-01 0.0000000000000000e+00  8.9679562529781091e-05 4.2211101380299827e-04 0.0000000000000000e+00  -1.8674147845477185e-05 2.9594498591690603e-04 0.0000000000000000e+00  7.7072221311988982e-05 2.0296584809555528e-04 0.0000000000000000e+00  -1.1753640240544236e-04 2.0230253116011322e-04 0.0000000000000000e+00  -8.1528571455911133e-03 1.9994713150211121e-01 0.0000000000000000e+00  -7.9322805722305354e-03 2.0000000000000001e-01 0.0000000000000000e+00  -4.8238942573920377e-06 2.7410033239489578e-04 0.0000000000000000e+00  3.8035386414823680e-05 7.5838745086729783e-05 0.0000000000000000e+00  -8.0879099168706704e-03 1.9987710788724383e-01 0.0000000000000000e+00  2.3946510428220968e-05 2.1556188003125026e-04 0.0000000000000000e+00  -5.9041346386034621e-05 7.1068266170071651e-05 0.0000000000000000e+00  -2.5382737973439772e-04 5.3080998508920924e-04 0.0000000000000000e+00  -2.9719920472301612e-05 2.5907797867583381e-04 0.0000000000000000e+00  -1.3273263657009126e-05 1.4860510527664740e-04 0.0000000000000000e+00  5.0041166467119451e-05 1.4295856618283406e-04 0.0000000000000000e+00  -3.1743470488030111e-05 2.3480138744314520e-04 0.0000000000000000e+00  -3.6360787543107734e-06 2.4498179900077935e-04 0.0000000000000000e+00  -1.7499707281095212e-04 3.8537713718440056e-04 0.0000000000000000e+00  -7.9314033898803260e-03 1.9995774319292955e-01 0.0000000000000000e+00  1.4958651712169508e-04 3.0166829600491481e-04 0.0000000000000000e+00  -5.9090048209214905e-05 1.7336895755135559e-04 0.0000000000000000e+00  6.9289000248235846e-05 3.4331236811036334e-04 0.0000000000000000e+00  -7.8156410644253105e-03 1.9980257871135296e-01 0.0000000000000000e+00  -6.6378582562610924e-05 1.3663525858573911e-04 0.0000000000000000e+00  -8.1065097998237797e-03 2.0000000000000001e-01 0.0000000000000000e+00  7.2247175335995629e-05 1.3925299898149272e-04 0.0000000000000000e+00  -8.1434957017335642e-03 1.9986006370789125e-01 0.0000000000000000e+00  1.5878384467565157e-04 4.1305739731165708e-04 0.0000000000000000e+00  9.7694334038431739e-05 1.8201814290895850e-04 0.0000000000000000e+00  -9.4278351781944497e-05 2.2586117793752929e-04 0.0000000000000000e+00  -8.1358859709468843e-03 2.0000000000000001e-01 0.0000000000000000e+00  4.7125269862140189e-05 1.5337766254508813e-04 0.0000000000000000e+00  -4.5070579147720992e-05 7.1175057337680186e-05 0.0000000000000000e+00  3.2314598520062798e-05 1.4731369665923414e-04 0.0000000000000000e+00  -8.1152625938494104e-03 1.9995082156505042e-01 0.0000000000000000e+00  -3.9991725306377733e-05 1.6343790878811058e-04 0.0000000000000000e+00  -1.7503819448325480e-04 3.3183793211206454e-04 0.0000000000000000e+00  7.3979250906492297e-05 1.7891969948560216e-04 0.0000000000000000e+00  -7.8901946240153564e-03 1.9987525355567640e-01 0.0000000000000000e+00  -9.4106156814700653e-05 1.8923416567467123e-04 0.0000000000000000e+00  -8.1369133960417350e-03 1.9994647880191826e-01 0.0000000000000000e+00  -9.5069694650844690e-06 1.9354981451203012e-04 0.0000000000000000e+00  -1.7455820360048305e-06 8.7595087695705306e-06 0.0000000000000000e+00  2.0975255063878128e-05 4.4295581867820990e-05 0.0000000000000000e+00  -7.8843274007572607e-03 1.9991381673686423e-01 0.0000000000000000e+00  -1.9907446719014777e-05 2.7282787519736140e-05 0.0000000000000000e+00  8.8796379830907502e-06 2.4987204741969533e-05 0.0000000000000000e+00  -8.3640899861132107e-05 1.2277655694934711e-04 0.0000000000000000e+00  3.1701819720363080e-05 4.9250861676848165e-05 0.0000000000000000e+00  6.3517246862928234e-05 7.9092852639442646e-05 0.0000000000000000e+00  -4.1815547324257014e-05 4.8094103418829887e-05 0.0000000000000000e+00  -8.0117160517068249e-03 1.9974755716107709e-01 0.0000000000000000e+00  -2.4792161108443598e-05 5.0222280728493797e-05 0.0000000000000000e+00  -5.9317372103105288e-05 1.1655277055594814e-04 0.0000000000000000e+00  2.5110412518936635e-04 5.6600238619521688e-04 0.0000000000000000e+00  -7.9656746198493496e-03 1.9991050114429940e-01 0.0000000000000000e+00  -8.0331460130904607e-03 1.9986966458633357e-01 0.0000000000000000e+00  -7.9938078893781704e-03 1.9995126729965104e-01 0.0000000000000000e+00  -8.1208623648191623e-03 1.9988748430217718e-01 0.0000000000000000e+00  -4.1143330217927833e-05 2.9493379383407849e-04 0.0000000000000000e+00  3.0263870786415566e-06 1.8640826019960833e-04 0.0000000000000000e+00  -6.6021819771354393e-05 2.6264522790511073e-04 0.0000000000000000e+00  5.1215445842338359e-05 1.2803951582081676e-04 0.0000000000000000e+00  2.1143824724698054e-05 2.3599515843792317e-04 0.0000000000000000e+00  1.1506311788922329e-05 3.2157119793861801e-04 0.0000000000000000e+00  -7.7672830925224661e-03 1.9975609294367203e-01 0.0000000000000000e+00  -8.5894899476167337e-05 8.4795416072526561e-05 0.0000000000000000e+00  -7.9040362755511389e-03 2.0000000000000001e-01 0.0000000000000000e+00  -1.1241621620809399e-04 1.4508016142095824e-04 0.0000000000000000e+00  -5.8352025495134995e-05 2.3080050467422629e-04 0.0000000000000000e+00  -8.1842398666665366e-03 1.9982032332852756e-01 0.0000000000000000e+00  -7.9682981963173517e-03 2.0000000000000001e-01 0.0000000000000000e+00  -9.5639665283557489e-05 3.8647164123990736e-04 0.0000000000000000e+00  1.8481385620039455e-05 4.2589502310234702e-05 0.0000000000000000e+00  6.6198004586683076e-05 7.5988216016564003e-05 0.0000000000000000e+00  9.2507279606124617e-05 1.3031569462594426e-04 0.0000000000000000e+00  -8.0676415393247710e-03 2.0000000000000001e-01 0.0000000000000000e+00  -8.0191924068093619e-03 2.0000000000000001e-01 0.0000000000000000e+00  4.6041982372823037e-05 2.0802113813058671e-04 0.0000000000000000e+00  -7.8734646671990254e-03 2.0000000000000001e-01 0.0000000000000000e+00  -7.8472476436738069e-03 1.9992687013172822e-01 0.0000000000000000e+00  -3.7785904250798600e-05 4.5470556708166284e-05 0.0000000000000000e+00  -7.8835062633746678e-03 1.9995177214323784e-01 0.0000000000000000e+00  1.8095427791820385e-05 6.6766017969791824e-05 0.0000000000000000e+00  -5.6399619021952377e-05 1.2061819955044263e-04 0.0000000000000000e+00  -7.8448992681263100e-03 1.9988388212138170e-01 0.0000000000000000e+00  7.6570750272090461e-05 9.3560487949870307e-05 0.0000000000000000e+00  -1.8435857918836621e-05 2.3880785388272048e-05 0.0000000000000000e+00  -7.4702326007870118e-05 2.0513167248391114e-04 0.0000000000000000e+00  3.2714319520447521e-05 8.1806296174941284e-05 0.0000000000000000e+00  -2.4964359175347265e-06 2.6343494102362427e-05 0.0000000000000000e+00  -1.0407509185316021e-04 2.3208279235234332e-04 0.0000000000000000e+00  -8.0490773039104818e-03 1.9994215523020570e-01 0.0000000000000000e+00  -3.7252320763870846e-06 1.0475166198667136e-04 0.0000000000000000e+00  -7.9197615225494924e-03 1.9991919734119926e-01 0.0000000000000000e+00  -2.6661608531555774e-04 5.2759575064058892e-04 0.0000000000000000e+00  -2.2042571227172351e-05 6.8184300715077510e-05 0.0000000000000000e+00  -8.1470588308827190e-03 1.9990327761928453e-01 0.0000000000000000e+00  -7.9186744275470799e-03 1.9996652100883403e-01 0.0000000000000000e+00  -3.1357328308050984e-05 4.3375719587117869e-05 0.0000000000000000e+00  -3.5201469896841109e-04 6.5306926716634573e-04 0.0000000000000000e+00  -7.9408212610113400e-03 1.9985682274874536e-01 0.0000000000000000e+00  1.4272037824437740e-05 2.2823673472376430e-05 0.0000000000000000e+00  -4.6087660767670107e-05 9.0830462469913543e-05 0.0000000000000000e+00  2.3146585778221426e-05 3.1365969118081667e-04 0.0000000000000000e+00  4.7437560667534169e-05 2.6798828413542573e-04 0.0000000000000000e+00  -3.7945319358059986e-05 8.3362154484262248e-05 0.0000000000000000e+00  1.7627900975144159e-04 3.3032668379760690e-04 0.0000000000000000e+00  -8.0779018689821694e-03 1.9984928334722940e-01 0.0000000000000000e+00  -4.4823631581242710e-05 1.2899989868643663e-04 0.0000000000000000e+00  2.6805720703407775e-05 4.8531081151112685e-05 0.0000000000000000e+00  2.4099558104097050e-05 1.3055899736718663e-04 0.0000000000000000e+00  5.9493596622193145e-05 1.8590725509016757e-04 0.0000000000000000e+00  -7.9474219837202230e-03 1.9995364921578815e-01 0.0000000000000000e+00  3.9505900211014966e-05 1.3943092891595450e-04 0.0000000000000000e+00  3.8267639914230794e-05 1.9978713578393958e-04 0.0000000000000000e+00  -4.8673341003767100e-05 2.2053125954252516e-04 0.0000000000000000e+00  -3.0603908111519222e-05 1.4775293610408467e-04 0.0000000000000000e+00  -8.1355853822270043e-03 1.9971954043209966e-01 0.0000000000000000e+00  2.8205385334776153e-04 5.6476640384832259e-04 0.0000000000000000e+00  2.7715659277303446e-04 6.5523460623302004e-04 0.0000000000000000e+00  -7.6008379292834968e-05 9.8562162598800685e-05 0.0000000000000000e+00  -8.1048862627483651e-03 1.9982253868842514e-01 0.0000000000000000e+00  4.5045010836836441e-06 8.2799908957503088e-05 0.0000000000000000e+00  7.0557448578791444e-05 1.1411747279603785e-04 0.0000000000000000e+00  -7.3795983360120545e-06 3.2366530035035354e-05 0.0000000000000000e+00  -8.1048261965674523e-03 1.9987960964540871e-01 0.0000000000000000e+00  -5.4671777668008852e-05 7.0826816645439309e-04 0.0000000000000000e+00  1.6657334652219998e-04 2.8926543326726324e-04 0.0000000000000000e+00  -8.0991113978202793e-03 1.9996417237546238e-01 0.0000000000000000e+00  5.1797932006070748e-05 9.5968738074056299e-05 0.0000000000000000e+00  -7.7657385087670783e-03 1.9952493298629792e-01 0.0000000000000000e+00  1.6109807592658585e-04 3.6550474133943564e-04 0.0000000000000000e+00  -5