<?xml version="1.0"?>
<VTKFile type="UnstructuredGrid"  version="0.1"  >
<UnstructuredGrid>
<Piece  NumberOfPoints="5173" NumberOfCells="9966">
<Points>
<DataArray  type="Float64"  NumberOfComponents="3"  format="ascii">-0.5 0.5 0  -0.5 -0.5 0  0.5 -0.5 0  0.5 0.5 0  0.1998669600420274 0.02125869712947308 0  0.201 0 0  0.1998669600420274 -0.02125869712947312 0  0.1964806779635733 -0.04227652472592507 0  0.1908795216936763 -0.06281534240438978 0  0.1831269545709826 -0.08264243715367564 0  0.1733108162787611 -0.1015331600677681 0  0.1615423275861927 -0.1192734717077003 0  0.1479548301726135 -0.1356623672539232 0  0.1327022758130076 -0.1505141539712278 0  0.1159574820428814 -0.1636605551816338 0  0.09791017406652992 -0.1749526169063923 0  0.07876483509466403 -0.1842623955740826 0  0.05873838946792427 -0.1914844076724011 0  0.03805774481742277 -0.1965368249185042 0  0.01695722111061653 -0.1993624014061501 0  -0.004324104287555032 -0.1999291222246905 0  -0.02554510545674447 -0.1982305662008014 0  -0.04646533997422303 -0.194285978652942 0  -0.06684777322360611 -0.1881400533342067 0  -0.08646146409177112 -0.1798624260342438 0  -0.1050841816239485 -0.1695468855779342 0  -0.1225049229892384 -0.1573103111605285 0  -0.138526304226997 -0.143291348059663 0  -0.1529667966859812 -0.127648836728964 0  -0.165662783816503 -0.1105600130722386 0  -0.1764704150113143 -0.0922185002898652 0  -0.1852672354904677 -0.07283211505056446 0  -0.1919535737629032 -0.05262051284550421 0  -0.1964536709442689 -0.03181269920381437 0  -0.1987165391353524 -0.0106444349684357 0  -0.1987165391353524 0.01064443496843575 0  -0.1964536709442689 0.03181269920381442 0  -0.1919535737629032 0.05262051284550433 0  -0.1852672354904677 0.07283211505056443 0  -0.1764704150113143 0.09221850028986515 0  -0.165662783816503 0.1105600130722387 0  -0.1529667966859812 0.1276488367289641 0  -0.1385263042269969 0.1432913480596631 0  -0.1225049229892383 0.1573103111605285 0  -0.1050841816239485 0.1695468855779342 0  -0.08646146409177108 0.1798624260342438 0  -0.06684777322360606 0.1881400533342067 0  -0.04646533997422297 0.194285978652942 0  -0.02554510545674437 0.1982305662008015 0  -0.004324104287554939 0.1999291222246905 0  0.01695722111061662 0.19936240140615 0  0.03805774481742286 0.1965368249185042 0  0.05873838946792424 0.1914844076724011 0  0.07876483509466414 0.1842623955740826 0  0.09791017406653006 0.1749526169063922 0  0.1159574820428814 0.1636605551816338 0  0.1327022758130078 0.1505141539712277 0  0.1479548301726135 0.1356623672539232 0  0.1615423275861927 0.1192734717077003 0  0.1733108162787612 0.101533160067768 0  0.1831269545709827 0.08264243715367564 0  0.1908795216936763 0.06281534240438975 0  0.1964806779635734 0.04227652472592486 0  0 -0.5 0  0 0.5 0  -0.5 0 0  0.5 0 0  0.25 -0.5 0  0.25 0.5 0  0.5 0.25 0  0.5 -0.25 0  -0.25 0.5 0  -0.25 -0.5 0  -0.5 -0.25 0  -0.5 0.25 0  0.2918258229480683 0.2918258229480682 0  0.2865867850624828 -0.2932931940421196 0  -0.2962949893701896 0.274449924397287 0  -0.2913160373738303 -0.2913160373738304 0  -0.125 0.3636995408959175 0  0.3637738468862107 -0.1261303957107176 0  0.125 0.3665964626830409 0  0.3640958654762797 0.1232161970438493 0  -0.3624000654276585 -0.1218337159209422 0  -0.125 -0.3668200952157802 0  0.125 -0.3712838880907947 0  -0.3600991828528437 0.1089843577122111 0  -0.5 0.375 0  0.5 -0.375 0  -0.375 -0.5 0  0.5 0.375 0  -0.375 0.5 0  0.375 -0.5 0  -0.5 -0.375 0  0.375 0.5 0  0.0006860903712339345 -0.3306266888645853 0  -0.000109901520948898 0.3746323380112415 0  -0.5 0.125 0  -0.125 -0.5 0  -0.5 -0.125 0  0.5 0.125 0  0.5 -0.125 0  0.125 -0.5 0  -0.125 0.5 0  0.125 0.5 0  0.3748576787807123 -0.001471205609738957 0  -0.3738828512115154 0.3738828512115154 0  -0.3827617049088436 -0.006210238480157219 0  -0.2429234745416257 0.3810213699917807 0  0.3769180353829246 -0.3769180353829246 0  -0.3777687524152424 -0.3777687524152424 0  0.3780704009792175 0.3780704009792175 0  -0.1776483227107271 -0.2618630460446135 0  -0.2604485542051718 -0.1787215021996984 0  -0.1798547561877991 0.2599748505350166 0  0.3864703130478905 -0.2380123189195306 0  0.1785319646943122 0.2625417448451246 0  0.261692611046212 0.1791168901036931 0  0.2607171500730768 -0.1799460669666111 0  0.1733970740599892 -0.2651674952354912 0  -0.3880520258539732 -0.2322407641539351 0  -0.2352016482221373 -0.388638232840279 0  0.2734696242623063 0.3964265996649794 0  0.3883795026617865 0.233417864889234 0  0.2738670858792859 -0.3976331321261044 0  -0.2491638954018168 0.1780101911767213 0  -0.3926686215746083 0.2165776265637375 0  0.07109213498061834 0.2869023807262104 0  -0.2934183534017453 0.03147305416145122 0  -0.08119265072200343 -0.2826195781877594 0  0.2836913223256923 -0.07709296110799269 0  -0.0558729689268372 0.2928347535333279 0  0.2830965643121598 0.07693076420704528 0  0.08122371629649494 -0.2825469282280794 0  -0.2767834230915197 -0.08819590430941976 0  0.1875 0.4332982313415205 0  -0.04303186331845871 -0.4151376431551652 0  0.190970733019215 -0.4322714131851434 0  0.06249999999999999 -0.4356419440453974 0  0.4328061849987423 0.06633847947711793 0  0.0664712649494027 0.4332982313415205 0  -0.06249999999999998 0.4373709104419552 0  0.4341377633941729 0.309372588857957 0  -0.4374372828954266 -0.3125 0  -0.3104572497507675 -0.4353019888851174 0  0.4374701104890421 -0.3125 0  -0.3116291712721947 0.4366347031852421 0  -0.4374901042687089 0.3125 0  -0.4363926600558238 0.4363926600558238 0  -0.5 0.0625 0  0.5 -0.0625 0  0.5 -0.4375 0  -0.4375 -0.5 0  0.5 0.4375 0  -0.1875 0.5 0  -0.4323246583268963 -0.07454303397230311 0  0.2154950463309389 -0.3375719358844427 0  0.206977802238796 0.342973363124546 0  0.4322596267199844 -0.1704803839098939 0  -0.1690769129391571 -0.4334100476078901 0  0.5 0.1875 0  -0.5 -0.1875 0  0.2967149326504868 -2.965984816150069e-05 0  -0.2579082457853068 0.1006999711688991 0  -0.4261732609354634 -0.1652001701086123 0  0.4197274728231854 -0.06828306080156128 0  0.4316260558094222 0.15625 0  -0.1765935890523967 0.4225213035878151 0  -0.326101012911042 0.1780020696215199 0  -0.3639018823524438 -0.3051829074366289 0  -0.4219359613016062 0.06132313683084987 0  -0.368871881750981 0.2861301036496543 0  -0.3031928482819811 -0.3630024307590357 0  0.3125 0.5 0  0.3355547846059301 -0.437829382399898 0  0.3620936304880762 0.3078025934392096 0  -0.4265460575686851 0.1475964618934338 0  0.4375 -0.5 0  -0.5 -0.4375 0  0.4375 0.5 0  0.3587983613906559 -0.3058906763528768 0  -0.1889171018677358 -0.3331988582480375 0  0.3319769361362775 -0.1908238194547704 0  0.3337713745363715 0.4328433800405805 0  -0.3319644446835826 -0.1870886352472088 0  0.3329253892881625 0.1878611701133833 0  0.4281511341447153 -0.4281511341447153 0  -0.232840147849867 0.3093215053326949 0  -0.40625 -0.4395608850352885 0  0.428794887401249 0.428794887401249 0  -0.3380841551254475 -0.05794700007688498 0  0.008054260670409629 -0.2648994211243904 0  0.1899220001124564 -0.1947534447033338 0  -0.3080416507322476 0.3708200057439822 0  -0.06307278823153059 -0.3455430469652901 0  0.06447087227249242 -0.3459780260685607 0  0.1914876772934198 0.1922953616824615 0  0.1267822167193652 -0.4357424153550361 0  -0.1100367963981227 0.2468729543145758 0  -0.1040301628609493 -0.4382371732506554 0  0.008496887133013969 0.3088587185741126 0  -0.1939711685411953 -0.1799889819170536 0  0.1169089524024441 0.2383640108781663 0  -0.5 0.1875 0  -0.06301873836730842 0.3744639870876723 0  0.0612272731888486 0.3516549422231338 0  0.0001842875295821901 0.4373159592812666 0  0.315570863666392 0.3499038328432952 0  0.43737589643705 0.003767781375474147 0  0.3480437072584214 -0.06190943679164183 0  0.3704548124556613 0.06095691071954262 0  0.3139725644615085 -0.3495769689516506 0  0.5 -0.1875 0  -0.5 -0.0625 0  -0.5 0.3125 0  -0.1875 -0.5 0  -0.3125 0.5 0  -0.3125 -0.5 0  -0.5 -0.3125 0  0.5 0.3125 0  -0.0625 0.5 0  0.5 0.0625 0  0.0625 -0.5 0  0.1875 -0.5 0  0.3125 -0.5 0  0.1875 0.5 0  0.0625 0.5 0  0.5 -0.3125 0  -0.4375 0.5 0  -0.5 0.4375 0  -0.0625 -0.5 0  -0.3740130545720807 0.4376162026208867 0  0.2356432480937504 -0.1203529309141897 0  0.2354253261260549 0.120280228505195 0  -0.4358389466402443 0.374436564627095 0  -0.1837098359759774 0.1929485386776155 0  -0.1210077767998366 -0.2331474219302516 0  -0.4388230181844467 -0.3736756227341544 0  0.2385916116983025 -0.2446215854929363 0  0.01618154697154811 -0.392205807603664 0  0.3033224724982568 0.1345019962362828 0  0.1269856324747013 0.4273682536406486 0  -0.2618767198442009 -0.02513308225372456 0  -0.1869024341550137 0.3523407916866587 0  0.4460792014197047 0.2150519456240759 0  -0.228067921023645 -0.1261420173261541 0  0.4375111104956734 0.3693541778847931 0  -0.2344434115929863 0.441225502334267 0  -0.1349409233725989 -0.3081519167298867 0  0.2361921270004774 0.236858231392783 0  -0.1134625589296566 0.3058057213872041 0  0.1364902237265291 -0.2193600350069504 0  -0.231009496195906 -0.2899916451544192 0  -0.4420301468408164 -0.0153626464053197 0  -0.3638407636123014 0.04989392276612995 0  -0.2281634567999949 -0.2293698735254731 0  -0.2404608239114909 0.2480193450766527 0  0.1548586079872366 0.3161601351946364 0  -0.2905808065687782 -0.2309892133488608 0  0.1583090638615736 -0.3223807786382032 0  0.3037640590628244 -0.1367963242859415 0  0.441474411355182 -0.3710236808063671 0  -0.1184457037417267 0.4214861255011078 0  0.3280783743867655 -0.2503846686276005 0  0.4421147536667354 -0.254616967737483 0  -0.4419160956032748 -0.2544205585064326 0  -0.3074463395544132 -0.1359279022829991 0  0.3366964226424555 0.256991018383815 0  -0.4508616135570574 0.21875 0  -0.3395120610056381 0.2372377549435862 0  -0.2261617732606898 -0.4465036260914809 0  0.2350726063974556 0.2936290504086719 0  0.007756726855498133 0.253726523067807 0  0.2816091581197124 -0.4531847002458751 0  0.002693579241951911 -0.4452927028974097 0  0.2614770372227774 0.3432624384800261 0  0.2905620892368345 0.2263682042801985 0  -0.2876366597373845 0.2178464403043631 0  0.2807413030307
[...]
<PointData  Vectors="f_44"> 
<DataArray  type="Float64"  Name="f_44"  NumberOfComponents="3" format="ascii">1.6395178542665687e-02 1.2653061224489798e-01 0.0000000000000000e+00  -1.7587025933930533e-02 3.5376135338398923e-02 0.0000000000000000e+00  1.7893338970726060e-02 3.5700204743340444e-02 0.0000000000000000e+00  -1.2349887221275122e-02 1.2653061224489798e-01 0.0000000000000000e+00  0.0000000000000000e+00 0.0000000000000000e+00 0.0000000000000000e+00  0.0000000000000000e+00 0.0000000000000000e+00 0.0000000000000000e+00  0.0000000000000000e+00 0.0000000000000000e+00 0.0000000000000000e+00  0.0000000000000000e+00 0.0000000000000000e+00 0.0000000000000000e+00  0.0000000000000000e+00 0.0000000000000000e+00 0.0000000000000000e+00  0.0000000000000000e+00 0.0000000000000000e+00 0.0000000000000000e+00  0.0000000000000000e+00 0.0000000000000000e+00 0.0000000000000000e+00  0.0000000000000000e+00 0.0000000000000000e+00 0.0000000000000000e+00  0.0000000000000000e+00 0.0000000000000000e+00 0.0000000000000000e+00  0.0000000000000000e+00 0.0000000000000000e+00 0.0000000000000000e+00  0.0000000000000000e+00 0.0000000000000000e+00 0.0000000000000000e+00  0.0000000000000000e+00 0.0000000000000000e+00 0.0000000000000000e+00  0.0000000000000000e+00 0.0000000000000000e+00 0.0000000000000000e+00  0.0000000000000000e+00 0.0000000000000000e+00 0.0000000000000000e+00  0.0000000000000000e+00 0.0000000000000000e+00 0.0000000000000000e+00  0.0000000000000000e+00 0.0000000000000000e+00 0.0000000000000000e+00  0.0000000000000000e+00 0.0000000000000000e+00 0.0000000000000000e+00  0.0000000000000000e+00 0.0000000000000000e+00 0.0000000000000000e+00  0.0000000000000000e+00 0.0000000000000000e+00 0.0000000000000000e+00  0.0000000000000000e+00 0.0000000000000000e+00 0.0000000000000000e+00  0.0000000000000000e+00 0.0000000000000000e+00 0.0000000000000000e+00  0.0000000000000000e+00 0.0000000000000000e+00 0.0000000000000000e+00  0.0000000000000000e+00 0.0000000000000000e+00 0.0000000000000000e+00  0.0000000000000000e+00 0.0000000000000000e+00 0.0000000000000000e+00  0.0000000000000000e+00 0.0000000000000000e+00 0.0000000000000000e+00  0.0000000000000000e+00 0.0000000000000000e+00 0.0000000000000000e+00  0.0000000000000000e+00 0.0000000000000000e+00 0.0000000000000000e+00  0.0000000000000000e+00 0.0000000000000000e+00 0.0000000000000000e+00  0.0000000000000000e+00 0.0000000000000000e+00 0.0000000000000000e+00  0.0000000000000000e+00 0.0000000000000000e+00 0.0000000000000000e+00  0.0000000000000000e+00 0.0000000000000000e+00 0.0000000000000000e+00  0.0000000000000000e+00 0.0000000000000000e+00 0.0000000000000000e+00  0.0000000000000000e+00 0.0000000000000000e+00 0.0000000000000000e+00  0.0000000000000000e+00 0.0000000000000000e+00 0.0000000000000000e+00  0.0000000000000000e+00 0.0000000000000000e+00 0.0000000000000000e+00  0.0000000000000000e+00 0.0000000000000000e+00 0.0000000000000000e+00  0.0000000000000000e+00 0.0000000000000000e+00 0.0000000000000000e+00  0.0000000000000000e+00 0.0000000000000000e+00 0.0000000000000000e+00  0.0000000000000000e+00 0.0000000000000000e+00 0.0000000000000000e+00  0.0000000000000000e+00 0.0000000000000000e+00 0.0000000000000000e+00  0.0000000000000000e+00 0.0000000000000000e+00 0.0000000000000000e+00  0.0000000000000000e+00 0.0000000000000000e+00 0.0000000000000000e+00  0.0000000000000000e+00 0.0000000000000000e+00 0.0000000000000000e+00  0.0000000000000000e+00 0.0000000000000000e+00 0.0000000000000000e+00  0.0000000000000000e+00 0.0000000000000000e+00 0.0000000000000000e+00  0.0000000000000000e+00 0.0000000000000000e+00 0.0000000000000000e+00  0.0000000000000000e+00 0.0000000000000000e+00 0.0000000000000000e+00  0.0000000000000000e+00 0.0000000000000000e+00 0.0000000000000000e+00  0.0000000000000000e+00 0.0000000000000000e+00 0.0000000000000000e+00  0.0000000000000000e+00 0.0000000000000000e+00 0.0000000000000000e+00  0.0000000000000000e+00 0.0000000000000000e+00 0.0000000000000000e+00  0.0000000000000000e+00 0.0000000000000000e+00 0.0000000000000000e+00  0.0000000000000000e+00 0.0000000000000000e+00 0.0000000000000000e+00  0.0000000000000000e+00 0.0000000000000000e+00 0.0000000000000000e+00  0.0000000000000000e+00 0.0000000000000000e+00 0.0000000000000000e+00  0.0000000000000000e+00 0.0000000000000000e+00 0.0000000000000000e+00  0.0000000000000000e+00 0.0000000000000000e+00 0.0000000000000000e+00  0.0000000000000000e+00 0.0000000000000000e+00 0.0000000000000000e+00  0.0000000000000000e+00 0.0000000000000000e+00 0.0000000000000000e+00  7.4136967302390716e-05 6.5882790055086958e-03 0.0000000000000000e+00  1.6753456908106031e-03 1.2653061224489798e-01 0.0000000000000000e+00  6.4641434190454436e-03 5.7406707938736826e-02 0.0000000000000000e+00  -7.0040437939045920e-03 5.8163797239388630e-02 0.0000000000000000e+00  1.5431918435894176e-02 1.8044032981793988e-02 0.0000000000000000e+00  -7.7588416253351704e-04 1.2653061224489798e-01 0.0000000000000000e+00  -3.0835619477903406e-02 8.3723261933885296e-02 0.0000000000000000e+00  6.6756024124973810e-03 3.8146384060622977e-02 0.0000000000000000e+00  4.2692630355945175e-03 1.2653061224489795e-01 0.0000000000000000e+00  -1.5189832757339844e-02 1.7977247604377872e-02 0.0000000000000000e+00  -6.5776492788535042e-03 3.7762953496789500e-02 0.0000000000000000e+00  3.2890524439103022e-02 8.4845192914932144e-02 0.0000000000000000e+00  -1.5892941922811175e-02 1.0874457518656062e-01 0.0000000000000000e+00  8.0142418479457328e-03 1.9980380879155536e-02 0.0000000000000000e+00  2.4398813268572201e-02 9.9810664986796152e-02 0.0000000000000000e+00  -7.9164317492817181e-03 2.0410939846402059e-02 0.0000000000000000e+00  5.4936704607219935e-03 1.2606888542478767e-01 0.0000000000000000e+00  4.2966249321040855e-03 3.2036907890908767e-02 0.0000000000000000e+00  -2.2452559191934204e-03 1.2609552922088696e-01 0.0000000000000000e+00  -1.4977724341527283e-02 5.4022114053648380e-02 0.0000000000000000e+00  -4.1766250733186105e-03 3.1845940016233462e-02 0.0000000000000000e+00  -4.9542875798266805e-03 7.4931058678751701e-03 0.0000000000000000e+00  5.1532858992323176e-03 7.5703929979247069e-03 0.0000000000000000e+00  1.1845582471208160e-02 4.9912464181823553e-02 0.0000000000000000e+00  2.3157874873118010e-02 1.0034035966891314e-01 0.0000000000000000e+00  1.1262340843042284e-02 3.5755335917894635e-02 0.0000000000000000e+00  -1.7535931842385777e-02 2.7560130588624623e-02 0.0000000000000000e+00  -1.8880816416269933e-02 1.0037983613608945e-01 0.0000000000000000e+00  9.0570294299122858e-03 1.2653061224489798e-01 0.0000000000000000e+00  1.7830166231975558e-02 2.7758835957831844e-02 0.0000000000000000e+00  -1.1063099143977479e-02 3.5427348446298738e-02 0.0000000000000000e+00  -5.2525954987658286e-03 1.2653061224489798e-01 0.0000000000000000e+00  5.8899402592883469e-05 3.1381419098687052e-03 0.0000000000000000e+00  1.5585103938447744e-03 1.2645681699691141e-01 0.0000000000000000e+00  2.1227368911757853e-02 7.3543830298768334e-02 0.0000000000000000e+00  -8.8986761374552185e-03 9.7758181884422587e-03 0.0000000000000000e+00  -1.8604282941778252e-03 4.4792057827118384e-02 0.0000000000000000e+00  -2.2193054759107586e-02 7.3714570392994547e-02 0.0000000000000000e+00  1.7810386054585437e-03 4.5356261078107765e-02 0.0000000000000000e+00  9.0931273757738611e-03 9.7838153449332672e-03 0.0000000000000000e+00  2.9071129235773486e-03 1.2653061224489798e-01 0.0000000000000000e+00  5.2719379748136796e-04 1.2653061224489798e-01 0.0000000000000000e+00  -2.5425456519068213e-03 4.1440812230966816e-02 0.0000000000000000e+00  1.5276429809429955e-02 1.0765729918698524e-01 0.0000000000000000e+00  2.0894748835253428e-03 4.1963493396755862e-02 0.0000000000000000e+00  7.8289337275681999e-03 1.2159483235964887e-01 0.0000000000000000e+00  1.1255953148913086e-02 2.7951602538278365e-02 0.0000000000000000e+00  -1.1094260474755551e-02 2.7817441688109231e-02 0.0000000000000000e+00  -1.1104333206207996e-02 1.0873906251052554e-01 0.0000000000000000e+00  -4.9818805376943900e-03 8.8972706299948034e-03 0.0000000000000000e+00  -5.4368017875885315e-03 1.6617218610202156e-02 0.0000000000000000e+00  1.6741744501099363e-02 1.2057654729133234e-02 0.0000000000000000e+00  7.3053586925425689e-03 3.0848503769674726e-02 0.0000000000000000e+00  -1.0944171447467801e-02 1.2142257064987708e-01 0.0000000000000000e+00  -1.7036272389263654e-02 2.7450081111549451e-02 0.0000000000000000e+00  5.4968673836663694e-03 1.6575523652925132e-02 0.0000000000000000e+00  4.9688852299327995e-03 8.5656414346902028e-03 0.0000000000000000e+00  -7.0491097729513232e-03 3.0928152425313563e-02 0.0000000000000000e+00  -9.1357802312970176e-03 1.5723872456827256e-02 0.0000000000000000e+00  -4.2061774846382724e-03 1.1973317190849321e-01 0.0000000000000000e+00  -2.8825946674017007e-02 8.0045853434740549e-02 0.0000000000000000e+00  1.0571848039315029e-02 1.9158810941060877e-02 0.0000000000000000e+00  1.4454266679234384e-02 2.3673699120920426e-02 0.0000000000000000e+00  2.8985276922045139e-02 7.5029418736755907e-02 0.0000000000000000e+00  -2.8234244348369652e-03 1.2418664998547707e-01 0.0000000000000000e+00  2.0307343574004493e-03 2.6561043450920169e-02 0.0000000000000000e+00  -2.3223024642928087e-03 3.4515817102938333e-03 0.0000000000000000e+00  2.9532988942486747e-03 2.0472914971607335e-02 0.0000000000000000e+00  2.7064243734111352e-03 1.2165164545561682e-01 0.0000000000000000e+00  -4.9937663714931324e-03 2.6825664234816374e-02 0.0000000000000000e+00  2.3592562664337051e-03 3.4157995331902309e-03 0.0000000000000000e+00  -3.3158748945885156e-03 1.9151470075624181e-02 0.0000000000000000e+00  -8.8933680696684210e-04 1.2538104641405692e-01 0.0000000000000000e+00  -2.0740534768412689e-03 5.3205056026172075e-03 0.0000000000000000e+00  9.3727342408878537e-03 1.2774836636136910e-02 0.0000000000000000e+00  3.4600122280824971e-03 6.1417394706485932e-03 0.0000000000000000e+00  -1.1654956141726716e-02 5.7979150874646522e-02 0.0000000000000000e+00  5.7694416431164331e-04 1.2666236662714214e-01 0.0000000000000000e+00  2.6301337168783919e-03 1.2665153289830880e-01 0.0000000000000000e+00  -2.3049731064717124e-02 9.3568818175706017e-02 0.0000000000000000e+00  -8.9677991254899694e-03 3.2930972655681512e-02 0.0000000000000000e+00  -1.2737544490744792e-02 2.2362439788151032e-02 0.0000000000000000e+00  9.1246879857207839e-03 3.3208741069304069e-02 0.0000000000000000e+00  7.2701647937997290e-03 1.2042661142927877e-01 0.0000000000000000e+00  2.6891752152605902e-02 9.3463276809924167e-02 0.0000000000000000e+00  1.4377347342818897e-02 1.1525962247401708e-01 0.0000000000000000e+00  1.3014696766380009e-02 6.5437501804151907e-02 0.0000000000000000e+00  -1.8888856339475243e-03 5.1083305530689592e-02 0.0000000000000000e+00  1.4313250982629320e-02 3.5652943245238398e-02 0.0000000000000000e+00  -1.7631481910665797e-02 3.1723843222074104e-02 0.0000000000000000e+00  -1.4033130244919048e-02 1.1304615841203612e-01 0.0000000000000000e+00  3.4046906035589317e-03 1.2653061224489795e-01 0.0000000000000000e+00  -9.0524109567018530e-04 4.3310307380888903e-02 0.0000000000000000e+00  7.4506918290653396e-03 1.3524082977124201e-02 0.0000000000000000e+00  -6.1397467741282491e-03 1.2294414699513774e-01 0.0000000000000000e+00  4.9662538636871239e-03 3.7626247779285561e-02 0.0000000000000000e+00  -8.3615335237157851e-03 1.1262128125580657e-02 0.0000000000000000e+00  -2.9379378983471094e-02 7.9405188472372282e-02 0.0000000000000000e+00  -4.4436551639245861e-03 4.0605232492988301e-02 0.0000000000000000e+00  -4.9438554618879771e-04 2.5580634138703578e-02 0.0000000000000000e+00  5.4696873892609377e-03 2.1528444069272061e-02 0.0000000000000000e+00  -4.8426900521441876e-03 3.7013466207357321e-02 0.0000000000000000e+00  6.6261112079626829e-04 4.2733581245736965e-02 0.0000000000000000e+00  -2.3766603125500069e-02 7.0208165069551132e-02 0.0000000000000000e+00  4.5351611950170383e-03 1.2562159826491434e-01 0.0000000000000000e+00  1.9653367828911562e-02 5.1190698521052458e-02 0.0000000000000000e+00  -8.8049432035892557e-03 2.7309036593300605e-02 0.0000000000000000e+00  9.6973346636293773e-03 5.5099579267272221e-02 0.0000000000000000e+00  2.6906430445791159e-02 9.0726497774423057e-02 0.0000000000000000e+00  -9.8068292040092778e-03 2.1538536208826745e-02 0.0000000000000000e+00  -2.5051135795786422e-03 1.2653061224489798e-01 0.0000000000000000e+00  1.3513602834137894e-02 2.4553406499386619e-02 0.0000000000000000e+00  -1.8617410887913140e-02 9.8168350486181333e-02 0.0000000000000000e+00  2.1284092390780988e-02 6.7483574785377282e-02 0.0000000000000000e+00  1.7935190972981706e-02 3.1983646001048416e-02 0.0000000000000000e+00  -1.4067090219997224e-02 3.5334183581350848e-02 0.0000000000000000e+00  -8.6209439392178223e-03 1.2653061224489798e-01 0.0000000000000000e+00  8.9538039931632771e-03 2.7004062237477856e-02 0.0000000000000000e+00  -6.4987893200711003e-03 1.1249356537975564e-02 0.0000000000000000e+00  6.2992157719620702e-03 2.5947318146728626e-02 0.0000000000000000e+00  -4.8070110176971718e-03 1.1905289742325574e-01 0.0000000000000000e+00  -6.1466234947627875e-03 2.5928278012673462e-02 0.0000000000000000e+00  -2.3582118752382052e-02 5.7852878444469374e-02 0.0000000000000000e+00  1.3769523686027907e-02 3.1441926000449073e-02 0.0000000000000000e+00  1.3986391696059091e-02 1.2026329885446257e-01 0.0000000000000000e+00  -1.4033700072260251e-02 2.9711542887836440e-02 0.0000000000000000e+00  -1.0299637263196123e-02 1.1444568000506246e-01 0.0000000000000000e+00  -1.8895742615855395e-03 3.1018014753045497e-02 0.0000000000000000e+00  2.0269219466064766e-04 1.5042990644507327e-03 0.0000000000000000e+00  4.0512469973834472e-03 7.9590019050775323e-03 0.0000000000000000e+00  1.1171312402767711e-02 1.1410266556004188e-01 0.0000000000000000e+00  -2.3418564366978903e-03 4.4050087312052962e-03 0.0000000000000000e+00  2.4841312900991371e-03 4.4369625998788671e-03 0.0000000000000000e+00  -1.1152750095917336e-02 8.8559463627550031e-03 0.0000000000000000e+00  6.7137813300648004e-03 8.7563373934955273e-03 0.0000000000000000e+00  6.7919588562064381e-03 2.9766187718063457e-03 0.0000000000000000e+00  -5.5132867211600935e-03 7.7014874754862336e-03 0.0000000000000000e+00  9.2603518218482568e-04 1.2540260108317644e-01 0.0000000000000000e+00  -3.8444120008060950e-03 8.0074026222617667e-03 0.0000000000000000e+00  -4.9973333634997031e-03 2.7286339251236420e-03 0.0000000000000000e+00  2.9304987643558850e-02 8.0114532454993240e-02 0.0000000000000000e+00  3.3988126521177714e-03 1.2643845030903683e-01 0.0000000000000000e+00  -6.4463266261653533e-04 1.2627983564873138e-01 0.0000000000000000e+00  1.6424934863243236e-03 1.2667844940988679e-01 0.0000000000000000e+00  -9.7450036009506733e-03 1.1118599406211153e-01 0.0000000000000000e+00  -5.1547719610153626e-03 5.1483002888746160e-02 0.0000000000000000e+00  1.8068124274392356e-03 3.2658759120244948e-02 0.0000000000000000e+00  -7.8677415461818456e-03 4.6840338166207432e-02 0.0000000000000000e+00  9.7376924077199490e-03 2.2620571012525660e-02 0.0000000000000000e+00  4.4908044537088415e-03 4.1054242865456510e-02 0.0000000000000000e+00  1.6361498120673233e-03 5.0408323463473806e-02 0.0000000000000000e+00  2.9588763470622698e-02 9.0710679768810989e-02 0.0000000000000000e+00  -1.2511973509946274e-02 1.3446367362014088e-02 0.0000000000000000e+00  6.0928807701771557e-03 1.2653061224489798e-01 0.0000000000000000e+00  -1.6814966088834128e-02 2.2859769011170695e-02 0.0000000000000000e+00  -8.6504756334619508e-03 3.6116252303586636e-02 0.0000000000000000e+00  -2.5784523495131297e-02 9.0141522902618218e-02 0.0000000000000000e+00  2.3502928593429340e-03 1.2653061224489798e-01 0.0000000000000000e+00  -1.3898571268963367e-02 6.6099795483017088e-02 0.0000000000000000e+00  4.7531288543054056e-03 7.4014829918017874e-03 0.0000000000000000e+00  1.2726565626307111e-02 1.3460800333362383e-02 0.0000000000000000e+00  1.7097244560547845e-02 2.2983615078644815e-02 0.0000000000000000e+00  6.5788356609921783e-05 1.2653061224489798e-01 0.0000000000000000e+00  1.0255844201046596e-03 1.2653061224489798e-01 0.0000000000000000e+00  8.7998815078122652e-03 3.6459575078301838e-02 0.0000000000000000e+00  1.2592150215639300e-02 1.2653061224489798e-01 0.0000000000000000e+00  1.8171468231889341e-02 1.1286437983040634e-01 0.0000000000000000e+00  -4.6028091596472505e-03 7.4123060943789929e-03 0.0000000000000000e+00  1.0532770943783135e-02 1.1761974480890228e-01 0.0000000000000000e+00  3.5626799298548680e-03 1.1859805961933497e-02 0.0000000000000000e+00  -6.4920394795310874e-03 1.5683480173756748e-02 0.0000000000000000e+00  1.9543388923975388e-02 1.0428260963903759e-01 0.0000000000000000e+00  1.0413136863925443e-02 8.3278571567510871e-03 0.0000000000000000e+00  -2.6779820463478112e-03 3.7702188282931833e-03 0.0000000000000000e+00  -1.1100281591963225e-02 3.2176389718126946e-02 0.0000000000000000e+00  6.3027653265220534e-03 1.4576672558296535e-02 0.0000000000000000e+00  7.9328978091519956e-04 4.5132337096594971e-03 0.0000000000000000e+00  -1.2402219650426269e-02 3.8251809017238791e-02 0.0000000000000000e+00  -3.4113155632423879e-04 1.2635804223499436e-01 0.0000000000000000e+00  -1.0531369936211180e-03 1.6855847515695740e-02 0.0000000000000000e+00  8.0783736731683594e-03 1.2443628590842729e-01 0.0000000000000000e+00  -2.9593641697810914e-02 7.9447005303834028e-02 0.0000000000000000e+00  -3.5376005575350256e-03 1.0950101038745582e-02 0.0000000000000000e+00  -1.5932978334426369e-02 1.0373793248454820e-01 0.0000000000000000e+00  4.8271892136318613e-03 1.2429930159558000e-01 0.0000000000000000e+00  -4.3995695253303355e-03 6.8650981857705413e-03 0.0000000000000000e+00  -2.6553536279110092e-02 2.4617471216382629e-02 0.0000000000000000e+00  6.9580829809507555e-03 1.2534295872920637e-01 0.0000000000000000e+00  2.8505912182937281e-03 4.1437926839395017e-03 0.0000000000000000e+00  -6.8251753728667697e-03 1.4366588159779261e-02 0.0000000000000000e+00  3.2258543489860430e-03 4.9587122229578173e-02 0.0000000000000000e+00  5.8721872459729565e-03 4.3701865696698768e-02 0.0000000000000000e+00  -5.7523087216013883e-03 1.3233483255802770e-02 0.0000000000000000e+00  2.7469416801700019e-02 2.5872138793208214e-02 0.0000000000000000e+00  -6.0621249570112640e-03 1.2495030610489503e-01 0.0000000000000000e+00  -6.8014180539902758e-03 2.0449097816952668e-02 0.0000000000000000e+00  5.4631905841683532e-03 8.7124752499709128e-03 0.0000000000000000e+00  4.8824161209255357e-03 2.3016079288241509e-02 0.0000000000000000e+00  1.1188204397732576e-02 3.2642683605375811e-02 0.0000000000000000e+00  3.7218206497085316e-03 1.2643648916639136e-01 0.0000000000000000e+00  7.5592590796524977e-03 2.4594044417499301e-02 0.0000000000000000e+00  7.3897927542069860e-03 3.4965104486583749e-02 0.0000000000000000e+00  -7.2685428604644534e-03 3.4646669093484732e-02 0.0000000000000000e+00  -4.8537796208925309e-03 2.3577988182451822e-02 0.0000000000000000e+00  -2.5612567378261179e-02 8.8121934389222431e-02 0.0000000000000000e+00  3.0630800322046493e-02 7.9955817678519461e-02 0.0000000000000000e+00  2.9642943807812287e-02 7.2700931910828243e-02 0.0000000000000000e+00  -1.1081828024820514e-02 1.5572111071672976e-02 0.0000000000000000e+00  -1.2528269250898219e-02 1.1918594132852996e-01 0.0000000000000000e+00  3.1387567770381724e-04 4.4266610282054557e-04 0.0000000000000000e+00  1.3282820418426327e-02 2.0177314544098015e-02 0.0000000000000000e+00  2.2119879319904652e-04 5.4737342397613506e-03 0.0000000000000000e+00  -7.9216967735766010e-03 1.1788340081228627e-01 0.0000000000000000e+00  -2.7611524514927255e-02 5.4851159954551504e-02 0.0000000000000000e+00  2.4830598457161464e-02 4.2951177777907086e-02 0.0000000000000000e+00  -2.0988301405898829e-03 1.2314958738756723e-01 0.0000000000000000e+00  6.2226046774821403e-03 1.1904044624949877e-02 0.0000000000000000e+00  3.0606277652510085e-02 8.5124260430081006e-02 0.0000000000000000e+00  2.1137260044039222e-02 6.2779379746049774e-02 0.0000000000000000e+00  -7.6179199501838031e-03 2.5561040651543968e-02 0.