<?xml version="1.0"?>
<VTKFile type="UnstructuredGrid"  version="0.1"  >
<UnstructuredGrid>
<Piece  NumberOfPoints="5173" NumberOfCells="9966">
<Points>
<DataArray  type="Float64"  NumberOfComponents="3"  format="ascii">-0.5 0.5 0  -0.5 -0.5 0  0.5 -0.5 0  0.5 0.5 0  0.1998669600420274 0.02125869712947308 0  0.201 0 0  0.1998669600420274 -0.02125869712947312 0  0.1964806779635733 -0.04227652472592507 0  0.1908795216936763 -0.06281534240438978 0  0.1831269545709826 -0.08264243715367564 0  0.1733108162787611 -0.1015331600677681 0  0.1615423275861927 -0.1192734717077003 0  0.1479548301726135 -0.1356623672539232 0  0.1327022758130076 -0.1505141539712278 0  0.1159574820428814 -0.1636605551816338 0  0.09791017406652992 -0.1749526169063923 0  0.07876483509466403 -0.1842623955740826 0  0.05873838946792427 -0.1914844076724011 0  0.03805774481742277 -0.1965368249185042 0  0.01695722111061653 -0.1993624014061501 0  -0.004324104287555032 -0.1999291222246905 0  -0.02554510545674447 -0.1982305662008014 0  -0.04646533997422303 -0.194285978652942 0  -0.06684777322360611 -0.1881400533342067 0  -0.08646146409177112 -0.1798624260342438 0  -0.1050841816239485 -0.1695468855779342 0  -0.1225049229892384 -0.1573103111605285 0  -0.138526304226997 -0.143291348059663 0  -0.1529667966859812 -0.127648836728964 0  -0.165662783816503 -0.1105600130722386 0  -0.1764704150113143 -0.0922185002898652 0  -0.1852672354904677 -0.07283211505056446 0  -0.1919535737629032 -0.05262051284550421 0  -0.1964536709442689 -0.03181269920381437 0  -0.1987165391353524 -0.0106444349684357 0  -0.1987165391353524 0.01064443496843575 0  -0.1964536709442689 0.03181269920381442 0  -0.1919535737629032 0.05262051284550433 0  -0.1852672354904677 0.07283211505056443 0  -0.1764704150113143 0.09221850028986515 0  -0.165662783816503 0.1105600130722387 0  -0.1529667966859812 0.1276488367289641 0  -0.1385263042269969 0.1432913480596631 0  -0.1225049229892383 0.1573103111605285 0  -0.1050841816239485 0.1695468855779342 0  -0.08646146409177108 0.1798624260342438 0  -0.06684777322360606 0.1881400533342067 0  -0.04646533997422297 0.194285978652942 0  -0.02554510545674437 0.1982305662008015 0  -0.004324104287554939 0.1999291222246905 0  0.01695722111061662 0.19936240140615 0  0.03805774481742286 0.1965368249185042 0  0.05873838946792424 0.1914844076724011 0  0.07876483509466414 0.1842623955740826 0  0.09791017406653006 0.1749526169063922 0  0.1159574820428814 0.1636605551816338 0  0.1327022758130078 0.1505141539712277 0  0.1479548301726135 0.1356623672539232 0  0.1615423275861927 0.1192734717077003 0  0.1733108162787612 0.101533160067768 0  0.1831269545709827 0.08264243715367564 0  0.1908795216936763 0.06281534240438975 0  0.1964806779635734 0.04227652472592486 0  0 -0.5 0  0 0.5 0  -0.5 0 0  0.5 0 0  0.25 -0.5 0  0.25 0.5 0  0.5 0.25 0  0.5 -0.25 0  -0.25 0.5 0  -0.25 -0.5 0  -0.5 -0.25 0  -0.5 0.25 0  0.2918258229480683 0.2918258229480682 0  0.2865867850624828 -0.2932931940421196 0  -0.2962949893701896 0.274449924397287 0  -0.2913160373738303 -0.2913160373738304 0  -0.125 0.3636995408959175 0  0.3637738468862107 -0.1261303957107176 0  0.125 0.3665964626830409 0  0.3640958654762797 0.1232161970438493 0  -0.3624000654276585 -0.1218337159209422 0  -0.125 -0.3668200952157802 0  0.125 -0.3712838880907947 0  -0.3600991828528437 0.1089843577122111 0  -0.5 0.375 0  0.5 -0.375 0  -0.375 -0.5 0  0.5 0.375 0  -0.375 0.5 0  0.375 -0.5 0  -0.5 -0.375 0  0.375 0.5 0  0.0006860903712339345 -0.3306266888645853 0  -0.000109901520948898 0.3746323380112415 0  -0.5 0.125 0  -0.125 -0.5 0  -0.5 -0.125 0  0.5 0.125 0  0.5 -0.125 0  0.125 -0.5 0  -0.125 0.5 0  0.125 0.5 0  0.3748576787807123 -0.001471205609738957 0  -0.3738828512115154 0.3738828512115154 0  -0.3827617049088436 -0.006210238480157219 0  -0.2429234745416257 0.3810213699917807 0  0.3769180353829246 -0.3769180353829246 0  -0.3777687524152424 -0.3777687524152424 0  0.3780704009792175 0.3780704009792175 0  -0.1776483227107271 -0.2618630460446135 0  -0.2604485542051718 -0.1787215021996984 0  -0.1798547561877991 0.2599748505350166 0  0.3864703130478905 -0.2380123189195306 0  0.1785319646943122 0.2625417448451246 0  0.261692611046212 0.1791168901036931 0  0.2607171500730768 -0.1799460669666111 0  0.1733970740599892 -0.2651674952354912 0  -0.3880520258539732 -0.2322407641539351 0  -0.2352016482221373 -0.388638232840279 0  0.2734696242623063 0.3964265996649794 0  0.3883795026617865 0.233417864889234 0  0.2738670858792859 -0.3976331321261044 0  -0.2491638954018168 0.1780101911767213 0  -0.3926686215746083 0.2165776265637375 0  0.07109213498061834 0.2869023807262104 0  -0.2934183534017453 0.03147305416145122 0  -0.08119265072200343 -0.2826195781877594 0  0.2836913223256923 -0.07709296110799269 0  -0.0558729689268372 0.2928347535333279 0  0.2830965643121598 0.07693076420704528 0  0.08122371629649494 -0.2825469282280794 0  -0.2767834230915197 -0.08819590430941976 0  0.1875 0.4332982313415205 0  -0.04303186331845871 -0.4151376431551652 0  0.190970733019215 -0.4322714131851434 0  0.06249999999999999 -0.4356419440453974 0  0.4328061849987423 0.06633847947711793 0  0.0664712649494027 0.4332982313415205 0  -0.06249999999999998 0.4373709104419552 0  0.4341377633941729 0.309372588857957 0  -0.4374372828954266 -0.3125 0  -0.3104572497507675 -0.4353019888851174 0  0.4374701104890421 -0.3125 0  -0.3116291712721947 0.4366347031852421 0  -0.4374901042687089 0.3125 0  -0.4363926600558238 0.4363926600558238 0  -0.5 0.0625 0  0.5 -0.0625 0  0.5 -0.4375 0  -0.4375 -0.5 0  0.5 0.4375 0  -0.1875 0.5 0  -0.4323246583268963 -0.07454303397230311 0  0.2154950463309389 -0.3375719358844427 0  0.206977802238796 0.342973363124546 0  0.4322596267199844 -0.1704803839098939 0  -0.1690769129391571 -0.4334100476078901 0  0.5 0.1875 0  -0.5 -0.1875 0  0.2967149326504868 -2.965984816150069e-05 0  -0.2579082457853068 0.1006999711688991 0  -0.4261732609354634 -0.1652001701086123 0  0.4197274728231854 -0.06828306080156128 0  0.4316260558094222 0.15625 0  -0.1765935890523967 0.4225213035878151 0  -0.326101012911042 0.1780020696215199 0  -0.3639018823524438 -0.3051829074366289 0  -0.4219359613016062 0.06132313683084987 0  -0.368871881750981 0.2861301036496543 0  -0.3031928482819811 -0.3630024307590357 0  0.3125 0.5 0  0.3355547846059301 -0.437829382399898 0  0.3620936304880762 0.3078025934392096 0  -0.4265460575686851 0.1475964618934338 0  0.4375 -0.5 0  -0.5 -0.4375 0  0.4375 0.5 0  0.3587983613906559 -0.3058906763528768 0  -0.1889171018677358 -0.3331988582480375 0  0.3319769361362775 -0.1908238194547704 0  0.3337713745363715 0.4328433800405805 0  -0.3319644446835826 -0.1870886352472088 0  0.3329253892881625 0.1878611701133833 0  0.4281511341447153 -0.4281511341447153 0  -0.232840147849867 0.3093215053326949 0  -0.40625 -0.4395608850352885 0  0.428794887401249 0.428794887401249 0  -0.3380841551254475 -0.05794700007688498 0  0.008054260670409629 -0.2648994211243904 0  0.1899220001124564 -0.1947534447033338 0  -0.3080416507322476 0.3708200057439822 0  -0.06307278823153059 -0.3455430469652901 0  0.06447087227249242 -0.3459780260685607 0  0.1914876772934198 0.1922953616824615 0  0.1267822167193652 -0.4357424153550361 0  -0.1100367963981227 0.2468729543145758 0  -0.1040301628609493 -0.4382371732506554 0  0.008496887133013969 0.3088587185741126 0  -0.1939711685411953 -0.1799889819170536 0  0.1169089524024441 0.2383640108781663 0  -0.5 0.1875 0  -0.06301873836730842 0.3744639870876723 0  0.0612272731888486 0.3516549422231338 0  0.0001842875295821901 0.4373159592812666 0  0.315570863666392 0.3499038328432952 0  0.43737589643705 0.003767781375474147 0  0.3480437072584214 -0.06190943679164183 0  0.3704548124556613 0.06095691071954262 0  0.3139725644615085 -0.3495769689516506 0  0.5 -0.1875 0  -0.5 -0.0625 0  -0.5 0.3125 0  -0.1875 -0.5 0  -0.3125 0.5 0  -0.3125 -0.5 0  -0.5 -0.3125 0  0.5 0.3125 0  -0.0625 0.5 0  0.5 0.0625 0  0.0625 -0.5 0  0.1875 -0.5 0  0.3125 -0.5 0  0.1875 0.5 0  0.0625 0.5 0  0.5 -0.3125 0  -0.4375 0.5 0  -0.5 0.4375 0  -0.0625 -0.5 0  -0.3740130545720807 0.4376162026208867 0  0.2356432480937504 -0.1203529309141897 0  0.2354253261260549 0.120280228505195 0  -0.4358389466402443 0.374436564627095 0  -0.1837098359759774 0.1929485386776155 0  -0.1210077767998366 -0.2331474219302516 0  -0.4388230181844467 -0.3736756227341544 0  0.2385916116983025 -0.2446215854929363 0  0.01618154697154811 -0.392205807603664 0  0.3033224724982568 0.1345019962362828 0  0.1269856324747013 0.4273682536406486 0  -0.2618767198442009 -0.02513308225372456 0  -0.1869024341550137 0.3523407916866587 0  0.4460792014197047 0.2150519456240759 0  -0.228067921023645 -0.1261420173261541 0  0.4375111104956734 0.3693541778847931 0  -0.2344434115929863 0.441225502334267 0  -0.1349409233725989 -0.3081519167298867 0  0.2361921270004774 0.236858231392783 0  -0.1134625589296566 0.3058057213872041 0  0.1364902237265291 -0.2193600350069504 0  -0.231009496195906 -0.2899916451544192 0  -0.4420301468408164 -0.0153626464053197 0  -0.3638407636123014 0.04989392276612995 0  -0.2281634567999949 -0.2293698735254731 0  -0.2404608239114909 0.2480193450766527 0  0.1548586079872366 0.3161601351946364 0  -0.2905808065687782 -0.2309892133488608 0  0.1583090638615736 -0.3223807786382032 0  0.3037640590628244 -0.1367963242859415 0  0.441474411355182 -0.3710236808063671 0  -0.1184457037417267 0.4214861255011078 0  0.3280783743867655 -0.2503846686276005 0  0.4421147536667354 -0.254616967737483 0  -0.4419160956032748 -0.2544205585064326 0  -0.3074463395544132 -0.1359279022829991 0  0.3366964226424555 0.256991018383815 0  -0.4508616135570574 0.21875 0  -0.3395120610056381 0.2372377549435862 0  -0.2261617732606898 -0.4465036260914809 0  0.2350726063974556 0.2936290504086719 0  0.007756726855498133 0.253726523067807 0  0.2816091581197124 -0.4531847002458751 0  0.002693579241951911 -0.4452927028974097 0  0.2614770372227774 0.3432624384800261 0  0.2905620892368345 0.2263682042801985 0  -0.2876366597373845 0.2178464403043631 0  0.2807413030307
[...]
<PointData  Vectors="f_44"> 
<DataArray  type="Float64"  Name="f_44"  NumberOfComponents="3" format="ascii">1.5335434350276025e-02 3.6734693877551024e-02 0.0000000000000000e+00  -6.1791431591070095e-03 1.2473497628182608e-02 0.0000000000000000e+00  6.0196713574968462e-03 1.2250527444517339e-02 0.0000000000000000e+00  -1.5288791274389004e-02 3.6734693877551024e-02 0.0000000000000000e+00  0.0000000000000000e+00 0.0000000000000000e+00 0.0000000000000000e+00  0.0000000000000000e+00 0.0000000000000000e+00 0.0000000000000000e+00  0.0000000000000000e+00 0.0000000000000000e+00 0.0000000000000000e+00  0.0000000000000000e+00 0.0000000000000000e+00 0.0000000000000000e+00  0.0000000000000000e+00 0.0000000000000000e+00 0.0000000000000000e+00  0.0000000000000000e+00 0.0000000000000000e+00 0.0000000000000000e+00  0.0000000000000000e+00 0.0000000000000000e+00 0.0000000000000000e+00  0.0000000000000000e+00 0.0000000000000000e+00 0.0000000000000000e+00  0.0000000000000000e+00 0.0000000000000000e+00 0.0000000000000000e+00  0.0000000000000000e+00 0.0000000000000000e+00 0.0000000000000000e+00  0.0000000000000000e+00 0.0000000000000000e+00 0.0000000000000000e+00  0.0000000000000000e+00 0.0000000000000000e+00 0.0000000000000000e+00  0.0000000000000000e+00 0.0000000000000000e+00 0.0000000000000000e+00  0.0000000000000000e+00 0.0000000000000000e+00 0.0000000000000000e+00  0.0000000000000000e+00 0.0000000000000000e+00 0.0000000000000000e+00  0.0000000000000000e+00 0.0000000000000000e+00 0.0000000000000000e+00  0.0000000000000000e+00 0.0000000000000000e+00 0.0000000000000000e+00  0.0000000000000000e+00 0.0000000000000000e+00 0.0000000000000000e+00  0.0000000000000000e+00 0.0000000000000000e+00 0.0000000000000000e+00  0.0000000000000000e+00 0.0000000000000000e+00 0.0000000000000000e+00  0.0000000000000000e+00 0.0000000000000000e+00 0.0000000000000000e+00  0.0000000000000000e+00 0.0000000000000000e+00 0.0000000000000000e+00  0.0000000000000000e+00 0.0000000000000000e+00 0.0000000000000000e+00  0.0000000000000000e+00 0.0000000000000000e+00 0.0000000000000000e+00  0.0000000000000000e+00 0.0000000000000000e+00 0.0000000000000000e+00  0.0000000000000000e+00 0.0000000000000000e+00 0.0000000000000000e+00  0.0000000000000000e+00 0.0000000000000000e+00 0.0000000000000000e+00  0.0000000000000000e+00 0.0000000000000000e+00 0.0000000000000000e+00  0.0000000000000000e+00 0.0000000000000000e+00 0.0000000000000000e+00  0.0000000000000000e+00 0.0000000000000000e+00 0.0000000000000000e+00  0.0000000000000000e+00 0.0000000000000000e+00 0.0000000000000000e+00  0.0000000000000000e+00 0.0000000000000000e+00 0.0000000000000000e+00  0.0000000000000000e+00 0.0000000000000000e+00 0.0000000000000000e+00  0.0000000000000000e+00 0.0000000000000000e+00 0.0000000000000000e+00  0.0000000000000000e+00 0.0000000000000000e+00 0.0000000000000000e+00  0.0000000000000000e+00 0.0000000000000000e+00 0.0000000000000000e+00  0.0000000000000000e+00 0.0000000000000000e+00 0.0000000000000000e+00  0.0000000000000000e+00 0.0000000000000000e+00 0.0000000000000000e+00  0.0000000000000000e+00 0.0000000000000000e+00 0.0000000000000000e+00  0.0000000000000000e+00 0.0000000000000000e+00 0.0000000000000000e+00  0.0000000000000000e+00 0.0000000000000000e+00 0.0000000000000000e+00  0.0000000000000000e+00 0.0000000000000000e+00 0.0000000000000000e+00  0.0000000000000000e+00 0.0000000000000000e+00 0.0000000000000000e+00  0.0000000000000000e+00 0.0000000000000000e+00 0.0000000000000000e+00  0.0000000000000000e+00 0.0000000000000000e+00 0.0000000000000000e+00  0.0000000000000000e+00 0.0000000000000000e+00 0.0000000000000000e+00  0.0000000000000000e+00 0.0000000000000000e+00 0.0000000000000000e+00  0.0000000000000000e+00 0.0000000000000000e+00 0.0000000000000000e+00  0.0000000000000000e+00 0.0000000000000000e+00 0.0000000000000000e+00  0.0000000000000000e+00 0.0000000000000000e+00 0.0000000000000000e+00  0.0000000000000000e+00 0.0000000000000000e+00 0.0000000000000000e+00  0.0000000000000000e+00 0.0000000000000000e+00 0.0000000000000000e+00  0.0000000000000000e+00 0.0000000000000000e+00 0.0000000000000000e+00  0.0000000000000000e+00 0.0000000000000000e+00 0.0000000000000000e+00  0.0000000000000000e+00 0.0000000000000000e+00 0.0000000000000000e+00  0.0000000000000000e+00 0.0000000000000000e+00 0.0000000000000000e+00  0.0000000000000000e+00 0.0000000000000000e+00 0.0000000000000000e+00  0.0000000000000000e+00 0.0000000000000000e+00 0.0000000000000000e+00  0.0000000000000000e+00 0.0000000000000000e+00 0.0000000000000000e+00  -8.5968377078595996e-05 2.2178033070476329e-03 0.0000000000000000e+00  6.6757140512768723e-05 3.6734693877551024e-02 0.0000000000000000e+00  3.0707226957537850e-03 1.9398713984515620e-02 0.0000000000000000e+00  -3.0498271300619566e-03 1.9222600119263463e-02 0.0000000000000000e+00  5.1635953310090067e-03 6.1124583366985496e-03 0.0000000000000000e+00  -1.0723334757703809e-02 3.6734693877551024e-02 0.0000000000000000e+00  -1.1671048642285227e-02 2.7927968733468748e-02 0.0000000000000000e+00  1.9952476313785748e-03 1.3096666657643290e-02 0.0000000000000000e+00  1.0809586588164702e-02 3.6734693877551024e-02 0.0000000000000000e+00  -5.3319124267576859e-03 6.2329439926769384e-03 0.0000000000000000e+00  -2.0524739166197510e-03 1.3316339474326441e-02 0.0000000000000000e+00  1.1703649093272896e-02 2.8029510672101660e-02 0.0000000000000000e+00  -9.9279667517711851e-03 2.3009410218643583e-02 0.0000000000000000e+00  2.5596774756647036e-03 6.7948472359460332e-03 0.0000000000000000e+00  9.6838254982705239e-03 2.2261077010350593e-02 0.0000000000000000e+00  -2.6393500669419775e-03 7.1070811428737392e-03 0.0000000000000000e+00  6.0320544758803493e-03 2.2682795317573980e-02 0.0000000000000000e+00  9.8623803587485101e-04 1.1002459465760244e-02 0.0000000000000000e+00  -5.9360837019384518e-03 2.2927625617377340e-02 0.0000000000000000e+00  -5.7916447711601916e-03 1.8025047789289442e-02 0.0000000000000000e+00  -9.3702822980807482e-04 1.1178954437298931e-02 0.0000000000000000e+00  -1.7374234385756230e-03 2.5681140895160558e-03 0.0000000000000000e+00  1.6576277748506594e-03 2.5378236639748940e-03 0.0000000000000000e+00  5.2571500179160865e-03 1.7410503861549072e-02 0.0000000000000000e+00  1.4442727397608409e-02 3.2283664952547038e-02 0.0000000000000000e+00  3.6836955972605499e-03 1.2274446209873745e-02 0.0000000000000000e+00  -6.1558790112267578e-03 9.6415792427850776e-03 0.0000000000000000e+00  -1.4404559203775806e-02 3.2230556413722085e-02 0.0000000000000000e+00  1.3625682822201019e-02 3.6734693877551017e-02 0.0000000000000000e+00  5.9933719045836475e-03 9.4702478758222994e-03 0.0000000000000000e+00  -3.7911741740133801e-03 1.2497351298163852e-02 0.0000000000000000e+00  -1.3567116806954056e-02 3.6734693877551024e-02 0.0000000000000000e+00  -3.6738632658976890e-05 1.0506556205285070e-03 0.0000000000000000e+00  6.7993480981727697e-05 2.2031390356835087e-02 0.0000000000000000e+00  7.4589311956167383e-03 2.3760717099433060e-02 0.0000000000000000e+00  -3.1596897268935421e-03 3.3482879360839410e-03 0.0000000000000000e+00  -9.8516068635762618e-05 1.5646136482713173e-02 0.0000000000000000e+00  -7.4293451299930506e-03 2.3620231331243850e-02 0.0000000000000000e+00  8.8089327892421795e-05 1.5445005849572405e-02 0.0000000000000000e+00  2.9941241565369053e-03 3.2881244652171199e-03 0.0000000000000000e+00  6.2430781914464073e-03 3.6734693877551024e-02 0.0000000000000000e+00  -6.1291750461300205e-03 3.6734693877551024e-02 0.0000000000000000e+00  -1.7368511741565574e-03 1.4260126366411847e-02 0.0000000000000000e+00  1.2793902663433287e-02 3.0102634364499756e-02 0.0000000000000000e+00  1.7142468625512464e-03 1.4683003694960516e-02 0.0000000000000000e+00  1.0154027204767664e-02 2.7540602867729004e-02 0.0000000000000000e+00  3.6876739137921078e-03 9.5357064628036389e-03 0.0000000000000000e+00  -3.8098533419220703e-03 9.7309027778117903e-03 0.0000000000000000e+00  -1.2857611593886049e-02 3.0343379506931473e-02 0.0000000000000000e+00  -1.6710616866986378e-03 3.0749364973148485e-03 0.0000000000000000e+00  -1.7031455539456915e-03 5.8313163783996064e-03 0.0000000000000000e+00  6.7230679256772606e-03 1.5150296888198009e-02 0.0000000000000000e+00  2.2056353926485344e-03 1.0530172604888569e-02 0.0000000000000000e+00  -6.6650068657308128e-03 1.5165880325575861e-02 0.0000000000000000e+00  -6.1506601880786105e-03 1.4641527501437020e-02 0.0000000000000000e+00  1.6782297939990361e-03 5.6949014143915415e-03 0.0000000000000000e+00  1.5860623062153726e-03 2.8902918856973394e-03 0.0000000000000000e+00  -2.1914696135695972e-03 1.0811592898805483e-02 0.0000000000000000e+00  -3.1667349156364322e-03 5.4476230876801283e-03 0.0000000000000000e+00  -1.0986560358065616e-02 2.9325458108537365e-02 0.0000000000000000e+00  -9.8923665680827819e-03 2.3739975011163292e-02 0.0000000000000000e+00  3.4784708699463576e-03 6.4988228841375822e-03 0.0000000000000000e+00  5.8953428598775290e-03 1.3846725739872449e-02 0.0000000000000000e+00  9.4690259267238997e-03 2.3282199665263056e-02 0.0000000000000000e+00  -3.1450252185806784e-03 1.2346338205443055e-02 0.0000000000000000e+00  1.6521252842722565e-03 1.0375944700312284e-02 0.0000000000000000e+00  -8.0440681208026146e-04 1.1778495331966051e-03 0.0000000000000000e+00  6.6391730653734139e-04 7.2917822696424595e-03 0.0000000000000000e+00  2.6276295820471906e-03 1.2670979074962915e-02 0.0000000000000000e+00  -2.8312423544114896e-03 1.1041251398910157e-02 0.0000000000000000e+00  7.3642981766232026e-04 1.1397320818226165e-03 0.0000000000000000e+00  -8.2596071825360258e-04 6.9196297602788096e-03 0.0000000000000000e+00  -8.5911269770743842e-03 3.0705415026836550e-02 0.0000000000000000e+00  -7.8989682849227565e-04 1.7972513095359899e-03 0.0000000000000000e+00  3.0869556280575024e-03 4.3080769986276225e-03 0.0000000000000000e+00  1.0818418976419680e-03 2.0539215544202777e-03 0.0000000000000000e+00  -4.5701256635278017e-03 1.9024677588275168e-02 0.0000000000000000e+00  -3.3472690600386107e-03 2.9247958964160294e-02 0.0000000000000000e+00  3.2787111266834161e-03 2.9693002966027417e-02 0.0000000000000000e+00  -1.2447827473319809e-02 2.8407092851520137e-02 0.0000000000000000e+00  -2.9869034314334913e-03 1.1558246442487855e-02 0.0000000000000000e+00  -4.4383533877333774e-03 7.7881709666633584e-03 0.0000000000000000e+00  2.9051036013734337e-03 1.1360679988497328e-02 0.0000000000000000e+00  1.2215338460058005e-02 3.2685021936684405e-02 0.0000000000000000e+00  1.2603220797817000e-02 2.8699660416075176e-02 0.0000000000000000e+00  1.4344429317449298e-02 3.3945405460617549e-02 0.0000000000000000e+00  5.1737437762135506e-03 2.1564958156497852e-02 0.0000000000000000e+00  -1.2896011962257677e-03 1.7191688730660338e-02 0.0000000000000000e+00  4.7628331229949764e-03 1.2235184995978263e-02 0.0000000000000000e+00  -6.1936653617599450e-03 1.1144674353864318e-02 0.0000000000000000e+00  -1.5069174424678073e-02 3.4457553398437077e-02 0.0000000000000000e+00  8.7716348470573656e-03 3.6734693877551024e-02 0.0000000000000000e+00  4.4021669044453038e-04 1.4986529939375607e-02 0.0000000000000000e+00  2.4138417345329843e-03 4.5721936770419377e-03 0.0000000000000000e+00  -8.7045088584758717e-03 2.3352417483487039e-02 0.0000000000000000e+00  1.2631091749748615e-03 1.2825947809551309e-02 0.0000000000000000e+00  -2.9402553764139071e-03 3.8774545970678355e-03 0.0000000000000000e+00  -9.6764072936514553e-03 2.5794385281725164e-02 0.0000000000000000e+00  -1.1723343944665190e-03 1.4278887928318225e-02 0.0000000000000000e+00  -8.5679527262929602e-04 9.5222856235113833e-03 0.0000000000000000e+00  3.1693266377109141e-03 1.0201795464592801e-02 0.0000000000000000e+00  -1.2403255078370309e-03 1.2917258188918274e-02 0.0000000000000000e+00  -4.7037380844114964e-04 1.4490240984753822e-02 0.0000000000000000e+00  -7.8269769058081275e-03 2.2226317104906839e-02 0.0000000000000000e+00  8.2616761261482645e-03 2.9586814935335343e-02 0.0000000000000000e+00  7.2735016816469298e-03 1.8606871094070929e-02 0.0000000000000000e+00  -2.9321369156211216e-03 9.5413881231449244e-03 0.0000000000000000e+00  4.3066358163286146e-03 1.8566311096604844e-02 0.0000000000000000e+00  1.1100309653427296e-02 2.5596881142164997e-02 0.0000000000000000e+00  -3.3615555525521885e-03 7.4987885190164619e-03 0.0000000000000000e+00  -1.2329607421316330e-02 3.6734693877551017e-02 0.0000000000000000e+00  4.4916385772633492e-03 8.3580343331518467e-03 0.0000000000000000e+00  -1.1432952639124291e-02 2.6366256288191718e-02 0.0000000000000000e+00  7.4921476187885571e-03 2.1837999662028502e-02 0.0000000000000000e+00  6.0332143654956817e-03 1.0945954231592833e-02 0.0000000000000000e+00  -4.8975075260275121e-03 1.2459899441058554e-02 0.0000000000000000e+00  -1.4525156742221641e-02 3.6734693877551024e-02 0.0000000000000000e+00  2.8552087602361506e-03 9.2066785426125550e-03 0.0000000000000000e+00  -2.2301675949127973e-03 3.8851641021748237e-03 0.0000000000000000e+00  1.8436601168294647e-03 8.8869435512749454e-03 0.0000000000000000e+00  -1.2582497689590558e-02 3.2684538846300674e-02 0.0000000000000000e+00  -1.8393797688999393e-03 9.0808232528121011e-03 0.0000000000000000e+00  -7.6745274304718418e-03 1.9288462520002637e-02 0.0000000000000000e+00  4.5725076618269925e-03 1.0755121336567730e-02 0.0000000000000000e+00  9.0465412959929385e-03 2.1816602690693212e-02 0.0000000000000000e+00  -4.8882608354876393e-03 1.0415396862671854e-02 0.0000000000000000e+00  -1.4134167265940105e-02 3.3504754530900724e-02 0.0000000000000000e+00  2.1759721975027793e-05 1.1083047925340416e-02 0.0000000000000000e+00  3.6471184392165697e-05 5.0379435445225391e-04 0.0000000000000000e+00  1.2815264739629445e-03 2.7055582692606522e-03 0.0000000000000000e+00  1.1576197181335440e-02 2.8481203451512584e-02 0.0000000000000000e+00  -8.4595751217568125e-04 1.4944880407349328e-03 0.0000000000000000e+00  7.6717104526620428e-04 1.4800105270791738e-03 0.0000000000000000e+00  -4.8773848142745152e-03 1.0137516622742797e-02 0.0000000000000000e+00  2.1859043810670211e-03 2.9381473587936106e-03 0.0000000000000000e+00  4.1115680276489989e-03 9.5981510739752817e-03 0.0000000000000000e+00  -1.9712328804628518e-03 2.6296663620072663e-03 0.0000000000000000e+00  -3.5319247240329921e-04 1.3937034349892682e-02 0.0000000000000000e+00  -1.2496155703805693e-03 2.7877902812899133e-03 0.0000000000000000e+00  -4.0567479159185097e-03 8.9434460905782418e-03 0.0000000000000000e+00  9.7070716430575597e-03 2.5915287197703939e-02 0.0000000000000000e+00  3.2526475574775342e-03 2.2521095831342632e-02 0.0000000000000000e+00  -3.0027529581688910e-03 1.9792327984354305e-02 0.0000000000000000e+00  5.6991680895052692e-05 2.9458601879335529e-02 0.0000000000000000e+00  -1.1388834550344968e-02 2.7333182567087288e-02 0.0000000000000000e+00  -2.5440472063694456e-03 1.7172405118133921e-02 0.0000000000000000e+00  -1.2492692848714038e-05 1.1370609297714020e-02 0.0000000000000000e+00  -3.6462152255014092e-03 1.6012703635971709e-02 0.0000000000000000e+00  3.1654786065621952e-03 7.6934807000722518e-03 0.0000000000000000e+00  1.1453229455834948e-03 1.4064502318462528e-02 0.0000000000000000e+00  1.2993824573171420e-03 1.7383561611926213e-02 0.0000000000000000e+00  1.3305654908278066e-02 3.0136061713915589e-02 0.0000000000000000e+00  -4.4044417435926313e-03 4.6371086159367287e-03 0.0000000000000000e+00  1.2402623766281817e-02 3.6734693877551024e-02 0.0000000000000000e+00  -5.8996920160923286e-03 7.9624823041551159e-03 0.0000000000000000e+00  -2.8758093732599603e-03 1.2743893888769892e-02 0.0000000000000000e+00  -1.3268581056984054e-02 3.0056656226199109e-02 0.0000000000000000e+00  3.2875892748372628e-03 3.6734693877551024e-02 0.0000000000000000e+00  -5.1469854141005583e-03 2.1406093062995759e-02 0.0000000000000000e+00  1.5120081591406930e-03 2.4828240483952728e-03 0.0000000000000000e+00  4.2363521337459983e-03 4.5415179410549598e-03 0.0000000000000000e+00  5.7375101373589258e-03 7.8144908801109081e-03 0.0000000000000000e+00  -8.6680228461110034e-03 3.6734693877551024e-02 0.0000000000000000e+00  -3.1584167624384160e-03 3.6734693877551031e-02 0.0000000000000000e+00  2.7930679292096426e-03 1.2521185940497009e-02 0.0000000000000000e+00  1.4578595847908306e-02 3.6734693877551024e-02 0.0000000000000000e+00  1.5113069302722075e-02 3.4487210889193737e-02 0.0000000000000000e+00  -1.6858232998101001e-03 2.5165801977005187e-03 0.0000000000000000e+00  1.3411640234609067e-02 3.3419403647149876e-02 0.0000000000000000e+00  1.0735466211641413e-03 4.1446227598550232e-03 0.0000000000000000e+00  -3.2572757933318625e-03 8.9923802065191832e-03 0.0000000000000000e+00  1.3687761326130825e-02 3.1260492342739823e-02 0.0000000000000000e+00  4.7497538281424468e-03 9.7190283006156602e-03 0.0000000000000000e+00  -8.9639930250845154e-04 1.2953683306545238e-03 0.0000000000000000e+00  -3.8038913053176152e-03 1.1301758174469134e-02 0.0000000000000000e+00  1.9944723308728926e-03 4.9579406439949850e-03 0.0000000000000000e+00  1.8878521336838659e-04 1.5095135321828779e-03 0.0000000000000000e+00  -5.2828160774367333e-03 1.5080567133480386e-02 0.0000000000000000e+00  -6.1744861809764932e-03 2.9257800070909619e-02 0.0000000000000000e+00  1.5247432522141231e-05 6.4445241133088442e-03 0.0000000000000000e+00  8.2511711898588126e-03 2.3527257591146940e-02 0.0000000000000000e+00  -1.0013820308390526e-02 2.4983599340268833e-02 0.0000000000000000e+00  -1.0959123235438166e-03 3.8869670716901701e-03 0.0000000000000000e+00  -1.3587175448891348e-02 3.1016227093157916e-02 0.0000000000000000e+00  1.0250250042269281e-02 3.2049897864171215e-02 0.0000000000000000e+00  -1.5112028601980724e-03 2.3587802012103041e-03 0.0000000000000000e+00  -7.4847819082582085e-03 1.6678149389557227e-02 0.0000000000000000e+00  5.1895978985547816e-03 1.6181232263576460e-02 0.0000000000000000e+00  9.0290519768063929e-04 1.3924014945539001e-03 0.0000000000000000e+00  -2.2947913966827509e-03 4.9839869758639384e-03 0.0000000000000000e+00  2.0455936065818261e-03 1.6945046738702816e-02 0.0000000000000000e+00  3.2202005395262434e-03 1.5453381372657584e-02 0.0000000000000000e+00  -1.8858554345478719e-03 4.6041952463339968e-03 0.0000000000000000e+00  7.9472545779598960e-03 1.7827842619896450e-02 0.0000000000000000e+00  -6.7515794544746304e-03 1.8887004818544596e-02 0.0000000000000000e+00  -2.1864561060551111e-03 7.1387129804794331e-03 0.0000000000000000e+00  1.7561942210792196e-03 2.9308137882285337e-03 0.0000000000000000e+00  1.3419244951590038e-03 7.9732846599970750e-03 0.0000000000000000e+00  3.6568697476501997e-03 1.1172563402865395e-02 0.0000000000000000e+00  5.9045319275509330e-03 2.8562278265326240e-02 0.0000000000000000e+00  2.3457053728438764e-03 8.3897093417334510e-03 0.0000000000000000e+00  2.2443000505252280e-03 1.1954803610059737e-02 0.0000000000000000e+00  -2.2994711406604963e-03 1.2148328485580872e-02 0.0000000000000000e+00  -1.3406693158508035e-03 8.3341979384463655e-03 0.0000000000000000e+00  -9.8478356223570956e-03 2.2877503469547034e-02 0.0000000000000000e+00  1.0224052680897232e-02 2.5397502406789976e-02 0.0000000000000000e+00  9.3874726236282263e-03 2.2109530265769270e-02 0.0000000000000000e+00  -3.8804135852595276e-03 5.3892081932145671e-03 0.0000000000000000e+00  -8.7633574649034450e-03 2.0656808009775530e-02 0.0000000000000000e+00  -2.5779297124210526e-04 6.8361936429739674e-03 0.0000000000000000e+00  4.4198543346806191e-03 6.8469984831718636e-03 0.0000000000000000e+00  -2.1071242444700758e-05 1.8372137898618869e-03 0.0000000000000000e+00  -1.0147682068410085e-02 2.5262582740840284e-02 0.0000000000000000e+00  -8.2439936126509697e-03 1.9108935269092717e-02 0.0000000000000000e+00  7.9883675296431658e-03 1.8598521658130397e-02 0.0000000000000000e+00  -1.1484508297480676e-02 3.3388407051419017e-02 0.0000000000000000e+00  3.2966713683986078e-03 8.1431800573277917e-03 0.0000000000000000e+00  1.1158501660836848e-02 2.6138425894969935e-02 0.0000000000000000e+00  7.5706087593896462e-03 2.0542241267800916e-02 0.0000000000000000e+00  -2.4617452910971741e-03 8.924119925066038