<?xml version="1.0"?>
<VTKFile type="UnstructuredGrid"  version="0.1"  >
<UnstructuredGrid>
<Piece  NumberOfPoints="5173" NumberOfCells="9966">
<Points>
<DataArray  type="Float64"  NumberOfComponents="3"  format="ascii">-0.5 0.5 0  -0.5 -0.5 0  0.5 -0.5 0  0.5 0.5 0  0.1998669600420274 0.02125869712947308 0  0.201 0 0  0.1998669600420274 -0.02125869712947312 0  0.1964806779635733 -0.04227652472592507 0  0.1908795216936763 -0.06281534240438978 0  0.1831269545709826 -0.08264243715367564 0  0.1733108162787611 -0.1015331600677681 0  0.1615423275861927 -0.1192734717077003 0  0.1479548301726135 -0.1356623672539232 0  0.1327022758130076 -0.1505141539712278 0  0.1159574820428814 -0.1636605551816338 0  0.09791017406652992 -0.1749526169063923 0  0.07876483509466403 -0.1842623955740826 0  0.05873838946792427 -0.1914844076724011 0  0.03805774481742277 -0.1965368249185042 0  0.01695722111061653 -0.1993624014061501 0  -0.004324104287555032 -0.1999291222246905 0  -0.02554510545674447 -0.1982305662008014 0  -0.04646533997422303 -0.194285978652942 0  -0.06684777322360611 -0.1881400533342067 0  -0.08646146409177112 -0.1798624260342438 0  -0.1050841816239485 -0.1695468855779342 0  -0.1225049229892384 -0.1573103111605285 0  -0.138526304226997 -0.143291348059663 0  -0.1529667966859812 -0.127648836728964 0  -0.165662783816503 -0.1105600130722386 0  -0.1764704150113143 -0.0922185002898652 0  -0.1852672354904677 -0.07283211505056446 0  -0.1919535737629032 -0.05262051284550421 0  -0.1964536709442689 -0.03181269920381437 0  -0.1987165391353524 -0.0106444349684357 0  -0.1987165391353524 0.01064443496843575 0  -0.1964536709442689 0.03181269920381442 0  -0.1919535737629032 0.05262051284550433 0  -0.1852672354904677 0.07283211505056443 0  -0.1764704150113143 0.09221850028986515 0  -0.165662783816503 0.1105600130722387 0  -0.1529667966859812 0.1276488367289641 0  -0.1385263042269969 0.1432913480596631 0  -0.1225049229892383 0.1573103111605285 0  -0.1050841816239485 0.1695468855779342 0  -0.08646146409177108 0.1798624260342438 0  -0.06684777322360606 0.1881400533342067 0  -0.04646533997422297 0.194285978652942 0  -0.02554510545674437 0.1982305662008015 0  -0.004324104287554939 0.1999291222246905 0  0.01695722111061662 0.19936240140615 0  0.03805774481742286 0.1965368249185042 0  0.05873838946792424 0.1914844076724011 0  0.07876483509466414 0.1842623955740826 0  0.09791017406653006 0.1749526169063922 0  0.1159574820428814 0.1636605551816338 0  0.1327022758130078 0.1505141539712277 0  0.1479548301726135 0.1356623672539232 0  0.1615423275861927 0.1192734717077003 0  0.1733108162787612 0.101533160067768 0  0.1831269545709827 0.08264243715367564 0  0.1908795216936763 0.06281534240438975 0  0.1964806779635734 0.04227652472592486 0  0 -0.5 0  0 0.5 0  -0.5 0 0  0.5 0 0  0.25 -0.5 0  0.25 0.5 0  0.5 0.25 0  0.5 -0.25 0  -0.25 0.5 0  -0.25 -0.5 0  -0.5 -0.25 0  -0.5 0.25 0  0.2918258229480683 0.2918258229480682 0  0.2865867850624828 -0.2932931940421196 0  -0.2962949893701896 0.274449924397287 0  -0.2913160373738303 -0.2913160373738304 0  -0.125 0.3636995408959175 0  0.3637738468862107 -0.1261303957107176 0  0.125 0.3665964626830409 0  0.3640958654762797 0.1232161970438493 0  -0.3624000654276585 -0.1218337159209422 0  -0.125 -0.3668200952157802 0  0.125 -0.3712838880907947 0  -0.3600991828528437 0.1089843577122111 0  -0.5 0.375 0  0.5 -0.375 0  -0.375 -0.5 0  0.5 0.375 0  -0.375 0.5 0  0.375 -0.5 0  -0.5 -0.375 0  0.375 0.5 0  0.0006860903712339345 -0.3306266888645853 0  -0.000109901520948898 0.3746323380112415 0  -0.5 0.125 0  -0.125 -0.5 0  -0.5 -0.125 0  0.5 0.125 0  0.5 -0.125 0  0.125 -0.5 0  -0.125 0.5 0  0.125 0.5 0  0.3748576787807123 -0.001471205609738957 0  -0.3738828512115154 0.3738828512115154 0  -0.3827617049088436 -0.006210238480157219 0  -0.2429234745416257 0.3810213699917807 0  0.3769180353829246 -0.3769180353829246 0  -0.3777687524152424 -0.3777687524152424 0  0.3780704009792175 0.3780704009792175 0  -0.1776483227107271 -0.2618630460446135 0  -0.2604485542051718 -0.1787215021996984 0  -0.1798547561877991 0.2599748505350166 0  0.3864703130478905 -0.2380123189195306 0  0.1785319646943122 0.2625417448451246 0  0.261692611046212 0.1791168901036931 0  0.2607171500730768 -0.1799460669666111 0  0.1733970740599892 -0.2651674952354912 0  -0.3880520258539732 -0.2322407641539351 0  -0.2352016482221373 -0.388638232840279 0  0.2734696242623063 0.3964265996649794 0  0.3883795026617865 0.233417864889234 0  0.2738670858792859 -0.3976331321261044 0  -0.2491638954018168 0.1780101911767213 0  -0.3926686215746083 0.2165776265637375 0  0.07109213498061834 0.2869023807262104 0  -0.2934183534017453 0.03147305416145122 0  -0.08119265072200343 -0.2826195781877594 0  0.2836913223256923 -0.07709296110799269 0  -0.0558729689268372 0.2928347535333279 0  0.2830965643121598 0.07693076420704528 0  0.08122371629649494 -0.2825469282280794 0  -0.2767834230915197 -0.08819590430941976 0  0.1875 0.4332982313415205 0  -0.04303186331845871 -0.4151376431551652 0  0.190970733019215 -0.4322714131851434 0  0.06249999999999999 -0.4356419440453974 0  0.4328061849987423 0.06633847947711793 0  0.0664712649494027 0.4332982313415205 0  -0.06249999999999998 0.4373709104419552 0  0.4341377633941729 0.309372588857957 0  -0.4374372828954266 -0.3125 0  -0.3104572497507675 -0.4353019888851174 0  0.4374701104890421 -0.3125 0  -0.3116291712721947 0.4366347031852421 0  -0.4374901042687089 0.3125 0  -0.4363926600558238 0.4363926600558238 0  -0.5 0.0625 0  0.5 -0.0625 0  0.5 -0.4375 0  -0.4375 -0.5 0  0.5 0.4375 0  -0.1875 0.5 0  -0.4323246583268963 -0.07454303397230311 0  0.2154950463309389 -0.3375719358844427 0  0.206977802238796 0.342973363124546 0  0.4322596267199844 -0.1704803839098939 0  -0.1690769129391571 -0.4334100476078901 0  0.5 0.1875 0  -0.5 -0.1875 0  0.2967149326504868 -2.965984816150069e-05 0  -0.2579082457853068 0.1006999711688991 0  -0.4261732609354634 -0.1652001701086123 0  0.4197274728231854 -0.06828306080156128 0  0.4316260558094222 0.15625 0  -0.1765935890523967 0.4225213035878151 0  -0.326101012911042 0.1780020696215199 0  -0.3639018823524438 -0.3051829074366289 0  -0.4219359613016062 0.06132313683084987 0  -0.368871881750981 0.2861301036496543 0  -0.3031928482819811 -0.3630024307590357 0  0.3125 0.5 0  0.3355547846059301 -0.437829382399898 0  0.3620936304880762 0.3078025934392096 0  -0.4265460575686851 0.1475964618934338 0  0.4375 -0.5 0  -0.5 -0.4375 0  0.4375 0.5 0  0.3587983613906559 -0.3058906763528768 0  -0.1889171018677358 -0.3331988582480375 0  0.3319769361362775 -0.1908238194547704 0  0.3337713745363715 0.4328433800405805 0  -0.3319644446835826 -0.1870886352472088 0  0.3329253892881625 0.1878611701133833 0  0.4281511341447153 -0.4281511341447153 0  -0.232840147849867 0.3093215053326949 0  -0.40625 -0.4395608850352885 0  0.428794887401249 0.428794887401249 0  -0.3380841551254475 -0.05794700007688498 0  0.008054260670409629 -0.2648994211243904 0  0.1899220001124564 -0.1947534447033338 0  -0.3080416507322476 0.3708200057439822 0  -0.06307278823153059 -0.3455430469652901 0  0.06447087227249242 -0.3459780260685607 0  0.1914876772934198 0.1922953616824615 0  0.1267822167193652 -0.4357424153550361 0  -0.1100367963981227 0.2468729543145758 0  -0.1040301628609493 -0.4382371732506554 0  0.008496887133013969 0.3088587185741126 0  -0.1939711685411953 -0.1799889819170536 0  0.1169089524024441 0.2383640108781663 0  -0.5 0.1875 0  -0.06301873836730842 0.3744639870876723 0  0.0612272731888486 0.3516549422231338 0  0.0001842875295821901 0.4373159592812666 0  0.315570863666392 0.3499038328432952 0  0.43737589643705 0.003767781375474147 0  0.3480437072584214 -0.06190943679164183 0  0.3704548124556613 0.06095691071954262 0  0.3139725644615085 -0.3495769689516506 0  0.5 -0.1875 0  -0.5 -0.0625 0  -0.5 0.3125 0  -0.1875 -0.5 0  -0.3125 0.5 0  -0.3125 -0.5 0  -0.5 -0.3125 0  0.5 0.3125 0  -0.0625 0.5 0  0.5 0.0625 0  0.0625 -0.5 0  0.1875 -0.5 0  0.3125 -0.5 0  0.1875 0.5 0  0.0625 0.5 0  0.5 -0.3125 0  -0.4375 0.5 0  -0.5 0.4375 0  -0.0625 -0.5 0  -0.3740130545720807 0.4376162026208867 0  0.2356432480937504 -0.1203529309141897 0  0.2354253261260549 0.120280228505195 0  -0.4358389466402443 0.374436564627095 0  -0.1837098359759774 0.1929485386776155 0  -0.1210077767998366 -0.2331474219302516 0  -0.4388230181844467 -0.3736756227341544 0  0.2385916116983025 -0.2446215854929363 0  0.01618154697154811 -0.392205807603664 0  0.3033224724982568 0.1345019962362828 0  0.1269856324747013 0.4273682536406486 0  -0.2618767198442009 -0.02513308225372456 0  -0.1869024341550137 0.3523407916866587 0  0.4460792014197047 0.2150519456240759 0  -0.228067921023645 -0.1261420173261541 0  0.4375111104956734 0.3693541778847931 0  -0.2344434115929863 0.441225502334267 0  -0.1349409233725989 -0.3081519167298867 0  0.2361921270004774 0.236858231392783 0  -0.1134625589296566 0.3058057213872041 0  0.1364902237265291 -0.2193600350069504 0  -0.231009496195906 -0.2899916451544192 0  -0.4420301468408164 -0.0153626464053197 0  -0.3638407636123014 0.04989392276612995 0  -0.2281634567999949 -0.2293698735254731 0  -0.2404608239114909 0.2480193450766527 0  0.1548586079872366 0.3161601351946364 0  -0.2905808065687782 -0.2309892133488608 0  0.1583090638615736 -0.3223807786382032 0  0.3037640590628244 -0.1367963242859415 0  0.441474411355182 -0.3710236808063671 0  -0.1184457037417267 0.4214861255011078 0  0.3280783743867655 -0.2503846686276005 0  0.4421147536667354 -0.254616967737483 0  -0.4419160956032748 -0.2544205585064326 0  -0.3074463395544132 -0.1359279022829991 0  0.3366964226424555 0.256991018383815 0  -0.4508616135570574 0.21875 0  -0.3395120610056381 0.2372377549435862 0  -0.2261617732606898 -0.4465036260914809 0  0.2350726063974556 0.2936290504086719 0  0.007756726855498133 0.253726523067807 0  0.2816091581197124 -0.4531847002458751 0  0.002693579241951911 -0.4452927028974097 0  0.2614770372227774 0.3432624384800261 0  0.2905620892368345 0.2263682042801985 0  -0.2876366597373845 0.2178464403043631 0  0.2807413030307
[...]
<PointData  Vectors="f_44"> 
<DataArray  type="Float64"  Name="f_44"  NumberOfComponents="3" format="ascii">1.3631497200245349e-02 3.2653061224489806e-02 0.0000000000000000e+00  -5.4925716969840069e-03 1.1087553447273434e-02 0.0000000000000000e+00  5.3508189844416326e-03 1.0889357728459845e-02 0.0000000000000000e+00  -1.3590036688345733e-02 3.2653061224489799e-02 0.0000000000000000e+00  0.0000000000000000e+00 0.0000000000000000e+00 0.0000000000000000e+00  0.0000000000000000e+00 0.0000000000000000e+00 0.0000000000000000e+00  0.0000000000000000e+00 0.0000000000000000e+00 0.0000000000000000e+00  0.0000000000000000e+00 0.0000000000000000e+00 0.0000000000000000e+00  0.0000000000000000e+00 0.0000000000000000e+00 0.0000000000000000e+00  0.0000000000000000e+00 0.0000000000000000e+00 0.0000000000000000e+00  0.0000000000000000e+00 0.0000000000000000e+00 0.0000000000000000e+00  0.0000000000000000e+00 0.0000000000000000e+00 0.0000000000000000e+00  0.0000000000000000e+00 0.0000000000000000e+00 0.0000000000000000e+00  0.0000000000000000e+00 0.0000000000000000e+00 0.0000000000000000e+00  0.0000000000000000e+00 0.0000000000000000e+00 0.0000000000000000e+00  0.0000000000000000e+00 0.0000000000000000e+00 0.0000000000000000e+00  0.0000000000000000e+00 0.0000000000000000e+00 0.0000000000000000e+00  0.0000000000000000e+00 0.0000000000000000e+00 0.0000000000000000e+00  0.0000000000000000e+00 0.0000000000000000e+00 0.0000000000000000e+00  0.0000000000000000e+00 0.0000000000000000e+00 0.0000000000000000e+00  0.0000000000000000e+00 0.0000000000000000e+00 0.0000000000000000e+00  0.0000000000000000e+00 0.0000000000000000e+00 0.0000000000000000e+00  0.0000000000000000e+00 0.0000000000000000e+00 0.0000000000000000e+00  0.0000000000000000e+00 0.0000000000000000e+00 0.0000000000000000e+00  0.0000000000000000e+00 0.0000000000000000e+00 0.0000000000000000e+00  0.0000000000000000e+00 0.0000000000000000e+00 0.0000000000000000e+00  0.0000000000000000e+00 0.0000000000000000e+00 0.0000000000000000e+00  0.0000000000000000e+00 0.0000000000000000e+00 0.0000000000000000e+00  0.0000000000000000e+00 0.0000000000000000e+00 0.0000000000000000e+00  0.0000000000000000e+00 0.0000000000000000e+00 0.0000000000000000e+00  0.0000000000000000e+00 0.0000000000000000e+00 0.0000000000000000e+00  0.0000000000000000e+00 0.0000000000000000e+00 0.0000000000000000e+00  0.0000000000000000e+00 0.0000000000000000e+00 0.0000000000000000e+00  0.0000000000000000e+00 0.0000000000000000e+00 0.0000000000000000e+00  0.0000000000000000e+00 0.0000000000000000e+00 0.0000000000000000e+00  0.0000000000000000e+00 0.0000000000000000e+00 0.0000000000000000e+00  0.0000000000000000e+00 0.0000000000000000e+00 0.0000000000000000e+00  0.0000000000000000e+00 0.0000000000000000e+00 0.0000000000000000e+00  0.0000000000000000e+00 0.0000000000000000e+00 0.0000000000000000e+00  0.0000000000000000e+00 0.0000000000000000e+00 0.0000000000000000e+00  0.0000000000000000e+00 0.0000000000000000e+00 0.0000000000000000e+00  0.0000000000000000e+00 0.0000000000000000e+00 0.0000000000000000e+00  0.0000000000000000e+00 0.0000000000000000e+00 0.0000000000000000e+00  0.0000000000000000e+00 0.0000000000000000e+00 0.0000000000000000e+00  0.0000000000000000e+00 0.0000000000000000e+00 0.0000000000000000e+00  0.0000000000000000e+00 0.0000000000000000e+00 0.0000000000000000e+00  0.0000000000000000e+00 0.0000000000000000e+00 0.0000000000000000e+00  0.0000000000000000e+00 0.0000000000000000e+00 0.0000000000000000e+00  0.0000000000000000e+00 0.0000000000000000e+00 0.0000000000000000e+00  0.0000000000000000e+00 0.0000000000000000e+00 0.0000000000000000e+00  0.0000000000000000e+00 0.0000000000000000e+00 0.0000000000000000e+00  0.0000000000000000e+00 0.0000000000000000e+00 0.0000000000000000e+00  0.0000000000000000e+00 0.0000000000000000e+00 0.0000000000000000e+00  0.0000000000000000e+00 0.0000000000000000e+00 0.0000000000000000e+00  0.0000000000000000e+00 0.0000000000000000e+00 0.0000000000000000e+00  0.0000000000000000e+00 0.0000000000000000e+00 0.0000000000000000e+00  0.0000000000000000e+00 0.0000000000000000e+00 0.0000000000000000e+00  0.0000000000000000e+00 0.0000000000000000e+00 0.0000000000000000e+00  0.0000000000000000e+00 0.0000000000000000e+00 0.0000000000000000e+00  0.0000000000000000e+00 0.0000000000000000e+00 0.0000000000000000e+00  0.0000000000000000e+00 0.0000000000000000e+00 0.0000000000000000e+00  0.0000000000000000e+00 0.0000000000000000e+00 0.0000000000000000e+00  0.0000000000000000e+00 0.0000000000000000e+00 0.0000000000000000e+00  -7.6416335180974225e-05 1.9713807173756736e-03 0.0000000000000000e+00  5.9339680455811172e-05 3.2653061224489799e-02 0.0000000000000000e+00  2.7295312851144762e-03 1.7243301319569436e-02 0.0000000000000000e+00  -2.7109574489439657e-03 1.7086755661567511e-02 0.0000000000000000e+00  4.5898625164524469e-03 5.4332962992875980e-03 0.0000000000000000e+00  -9.5318531179589064e-03 3.2653061224489799e-02 0.0000000000000000e+00  -1.0374265459809080e-02 2.4824861096416639e-02 0.0000000000000000e+00  1.7735534501142868e-03 1.1641481473460695e-02 0.0000000000000000e+00  9.6085214117019521e-03 3.2653061224489799e-02 0.0000000000000000e+00  -4.7394777126734981e-03 5.5403946601572766e-03 0.0000000000000000e+00  -1.8244212592175562e-03 1.1836746199401279e-02 0.0000000000000000e+00  1.0403243638464798e-02 2.4915120597423700e-02 0.0000000000000000e+00  -8.8248593349077031e-03 2.0452809083238741e-02 0.0000000000000000e+00  2.2752688672575115e-03 6.0398642097298019e-03 0.0000000000000000e+00  8.6078448873515810e-03 1.9787624009200526e-02 0.0000000000000000e+00  -2.3460889483928687e-03 6.3174054603322123e-03 0.0000000000000000e+00  5.3618262007825365e-03 2.0162484726732426e-02 0.0000000000000000e+00  8.7665603188875462e-04 9.7799639695646569e-03 0.0000000000000000e+00  -5.2765188461674955e-03 2.0380111659890971e-02 0.0000000000000000e+00  -5.1481286854757205e-03 1.6022264701590606e-02 0.0000000000000000e+00  -8.3291398205162059e-04 9.9368483887101629e-03 0.0000000000000000e+00  -1.5443763898449979e-03 2.2827680795698261e-03 0.0000000000000000e+00  1.4734469109783628e-03 2.2558432568665727e-03 0.0000000000000000e+00  4.6730222381476342e-03 1.5476003432488061e-02 0.0000000000000000e+00  1.2837979908985246e-02 2.8696591068930698e-02 0.0000000000000000e+00  3.2743960864538200e-03 1.0910618853221095e-02 0.0000000000000000e+00  -5.4718924544237832e-03 8.5702926602534025e-03 0.0000000000000000e+00  -1.2804052625578466e-02 2.8649383478864067e-02 0.0000000000000000e+00  1.2111718064178673e-02 3.2653061224489799e-02 0.0000000000000000e+00  5.3274416929632393e-03 8.4179981118420368e-03 0.0000000000000000e+00  -3.3699325991230051e-03 1.1108756709478980e-02 0.0000000000000000e+00  -1.2059659383959113e-02 3.2653061224489799e-02 0.0000000000000000e+00  -3.2656562363535094e-05 9.3391610713645045e-04 0.0000000000000000e+00  6.0438649761546528e-05 1.9583458094964527e-02 0.0000000000000000e+00  6.6301610627704363e-03 2.1120637421718269e-02 0.0000000000000000e+00  -2.8086130905720370e-03 2.9762559431857232e-03 0.0000000000000000e+00  -8.7569838787341682e-05 1.3907676873522824e-02 0.0000000000000000e+00  -6.6038623377715957e-03 2.0995761183327855e-02 0.0000000000000000e+00  7.8301624793261095e-05 1.3728894088508792e-02 0.0000000000000000e+00  2.6614436946994697e-03 2.9227773024152162e-03 0.0000000000000000e+00  5.5494028368412588e-03 3.2653061224489792e-02 0.0000000000000000e+00  -5.4481555965599929e-03 3.2653061224489799e-02 0.0000000000000000e+00  -1.5438677103613843e-03 1.2675667881254970e-02 0.0000000000000000e+00  1.1372357923051812e-02 2.6757897212888675e-02 0.0000000000000000e+00  1.5237749889344412e-03 1.3051558839964901e-02 0.0000000000000000e+00  9.0258019597934808e-03 2.4480535882425783e-02 0.0000000000000000e+00  3.2779323678152035e-03 8.4761835224921190e-03 0.0000000000000000e+00  -3.3865363039307277e-03 8.6496913580549305e-03 0.0000000000000000e+00  -1.1428988083454236e-02 2.6971892895050194e-02 0.0000000000000000e+00  -1.4853881659543434e-03 2.7332768865020872e-03 0.0000000000000000e+00  -1.5139071590628357e-03 5.1833923363552069e-03 0.0000000000000000e+00  5.9760603783797902e-03 1.3466930567287120e-02 0.0000000000000000e+00  1.9605647934653613e-03 9.3601534265676124e-03 0.0000000000000000e+00  -5.9244505473162682e-03 1.3480782511622987e-02 0.0000000000000000e+00  -5.4672535005143158e-03 1.3014691112388467e-02 0.0000000000000000e+00  1.4917598168880304e-03 5.0621345905702587e-03 0.0000000000000000e+00  1.4098331610803295e-03 2.5691483428420779e-03 0.0000000000000000e+00  -1.9479729898396415e-03 9.6103047989382039e-03 0.0000000000000000e+00  -2.8148754805657158e-03 4.8423316334934453e-03 0.0000000000000000e+00  -9.7658314293916290e-03 2.6067073874255442e-02 0.0000000000000000e+00  -8.7932147271846846e-03 2.1102200009922918e-02 0.0000000000000000e+00  3.0919741066189818e-03 5.7767314525667352e-03 0.0000000000000000e+00  5.2403047643355839e-03 1.2308200657664399e-02 0.0000000000000000e+00  8.4169119348656875e-03 2.0695288591344937e-02 0.0000000000000000e+00  -2.7955779720717070e-03 1.0974522849282721e-02 0.0000000000000000e+00  1.4685558082420066e-03 9.2230619558331395e-03 0.0000000000000000e+00  -7.1502827740467696e-04 1.0469773628414263e-03 0.0000000000000000e+00  5.9014871692208092e-04 6.4815842396821833e-03 0.0000000000000000e+00  2.3356707395975080e-03 1.1263092511078153e-02 0.0000000000000000e+00  -2.5166598705879889e-03 9.8144456879201390e-03 0.0000000000000000e+00  6.5460428236650630e-04 1.0130951838423258e-03 0.0000000000000000e+00  -7.3418730511431237e-04 6.1507820091367162e-03 0.0000000000000000e+00  -7.6365573129549853e-03 2.7293702246076933e-02 0.0000000000000000e+00  -7.0213051421535609e-04 1.5975567195875456e-03 0.0000000000000000e+00  2.7439605582733340e-03 3.8294017765578853e-03 0.0000000000000000e+00  9.6163724234841564e-04 1.8257080483735796e-03 0.0000000000000000e+00  -4.0623339231358226e-03 1.6910824522911264e-02 0.0000000000000000e+00  -2.9753502755898577e-03 2.5998185745920267e-02 0.0000000000000000e+00  2.9144098903852692e-03 2.6393780414246594e-02 0.0000000000000000e+00  -1.1064735531839813e-02 2.5250749201351230e-02 0.0000000000000000e+00  -2.6550252723853258e-03 1.0273996837766981e-02 0.0000000000000000e+00  -3.9452030113185568e-03 6.9228186370340963e-03 0.0000000000000000e+00  2.5823143123319390e-03 1.0098382211997619e-02 0.0000000000000000e+00  1.0858078631162667e-02 2.9053352832608358e-02 0.0000000000000000e+00  1.1202862931392893e-02 2.5510809258733495e-02 0.0000000000000000e+00  1.2750603837732700e-02 3.0173693742771148e-02 0.0000000000000000e+00  4.5988833566342679e-03 1.9168851694664753e-02 0.0000000000000000e+00  -1.1463121744229047e-03 1.5281501093920286e-02 0.0000000000000000e+00  4.2336294426621986e-03 1.0875719996425113e-02 0.0000000000000000e+00  -5.5054803215643950e-03 9.9063772034349521e-03 0.0000000000000000e+00  -1.3394821710824912e-02 3.0628936354166279e-02 0.0000000000000000e+00  7.7970087529398834e-03 3.2653061224489799e-02 0.0000000000000000e+00  3.9130372483958442e-04 1.3321359946111654e-02 0.0000000000000000e+00  2.1456370973626506e-03 4.0641721573706092e-03 0.0000000000000000e+00  -7.7373412075340941e-03 2.0757704429766256e-02 0.0000000000000000e+00  1.1227637110887629e-03 1.1400842497378933e-02 0.0000000000000000e+00  -2.6135603345901395e-03 3.4466263085047421e-03 0.0000000000000000e+00  -8.6012509276901759e-03 2.2928342472644574e-02 0.0000000000000000e+00  -1.0420750173035726e-03 1.2692344825171755e-02 0.0000000000000000e+00  -7.6159579789270796e-04 8.4642538875656752e-03 0.0000000000000000e+00  2.8171792335208133e-03 9.0682626351936031e-03 0.0000000000000000e+00  -1.1025115625218033e-03 1.1482007279038463e-02 0.0000000000000000e+00  -4.1811005194769101e-04 1.2880214208670056e-02 0.0000000000000000e+00  -6.9573128051627735e-03 1.9756726315472740e-02 0.0000000000000000e+00  7.3437121121317957e-03 2.6299391053631421e-02 0.0000000000000000e+00  6.4653348281306037e-03 1.6539440972507490e-02 0.0000000000000000e+00  -2.6063439249965513e-03 8.4812338872399338e-03 0.0000000000000000e+00  3.8281207256254364e-03 1.6503387641426524e-02 0.0000000000000000e+00  9.8669419141575974e-03 2.2752783237479993e-02 0.0000000000000000e+00  -2.9880493800463898e-03 6.6655897946812986e-03 0.0000000000000000e+00  -1.0959651041170030e-02 3.2653061224489792e-02 0.0000000000000000e+00  3.9925676242340861e-03 7.4293638516905224e-03 0.0000000000000000e+00  -1.0162624568110463e-02 2.3436672256170413e-02 0.0000000000000000e+00  6.6596867722564937e-03 1.9411555255136444e-02 0.0000000000000000e+00  5.3628572137739338e-03 9.7297370947491742e-03 0.0000000000000000e+00  -4.3533400231355645e-03 1.1075466169829826e-02 0.0000000000000000e+00  -1.2911250437530298e-02 3.2653061224489799e-02 0.0000000000000000e+00  2.5379633424321324e-03 8.1837142601000439e-03 0.0000000000000000e+00  -1.9823711954780414e-03 3.4534792019331761e-03 0.0000000000000000e+00  1.6388089927373000e-03 7.8995053789110547e-03 0.0000000000000000e+00  -1.1184442390747127e-02 2.9052923418933934e-02 0.0000000000000000e+00  -1.6350042390221673e-03 8.0718428913885316e-03 0.0000000000000000e+00  -6.8218021604194087e-03 1.7145300017780123e-02 0.0000000000000000e+00  4.0644512549573237e-03 9.5601078547268639e-03 0.0000000000000000e+00  8.0413700408826141e-03 1.9392535725060639e-02 0.0000000000000000e+00  -4.3451207426556783e-03 9.2581305445972057e-03 0.0000000000000000e+00  -1.2563704236391164e-02 2.9782004027467307e-02 0.0000000000000000e+00  1.9341975088915444e-05 9.8515981558581472e-03 0.0000000000000000e+00  3.2418830570813664e-05 4.4781720395755889e-04 0.0000000000000000e+00  1.1391346435226165e-03 2.4049406837872460e-03 0.0000000000000000e+00  1.0289953050075946e-02 2.5316625290233413e-02 0.0000000000000000e+00  -7.5196223304504974e-04 1.3284338139866059e-03 0.0000000000000000e+00  6.8192981801440302e-04 1.3155649129592652e-03 0.0000000000000000e+00  -4.3354531682440103e-03 9.0111258868824859e-03 0.0000000000000000e+00  1.9430261165040183e-03 2.6116865411498760e-03 0.0000000000000000e+00  3.6547271356880025e-03 8.5316898435335853e-03 0.0000000000000000e+00  -1.7522070048558683e-03 2.3374812106731245e-03 0.0000000000000000e+00  -3.1394886435848006e-04 1.2388474977682383e-02 0.0000000000000000e+00  -1.1107693958938389e-03 2.4780358055910331e-03 0.0000000000000000e+00  -3.6059981474831151e-03 7.9497298582917719e-03 0.0000000000000000e+00  8.6285081271622755e-03 2.3035810842403505e-02 0.0000000000000000e+00  2.8912422733133720e-03 2.0018751850082346e-02 0.0000000000000000e+00  -2.6691137405945573e-03 1.7593180430537154e-02 0.0000000000000000e+00  5.0659271906729456e-05 2.6185423892742688e-02 0.0000000000000000e+00  -1.0123408489195504e-02 2.4296162281855362e-02 0.0000000000000000e+00  -2.2613752945506178e-03 1.5264360105007922e-02 0.0000000000000000e+00  -1.1104615865525809e-05 1.0107208264634685e-02 0.0000000000000000e+00  -3.2410802004456960e-03 1.4233514343085963e-02 0.0000000000000000e+00  2.8137587613886162e-03 6.8386495111753300e-03 0.0000000000000000e+00  1.0180648405186596e-03 1.2501779838633348e-02 0.0000000000000000e+00  1.1550066287263480e-03 1.5452054766156628e-02 0.0000000000000000e+00  1.1827248807358281e-02 2.6787610412369413e-02 0.0000000000000000e+00  -3.9150593276378936e-03 4.1218743252770911e-03 0.0000000000000000e+00  1.1024554458917165e-02 3.2653061224489792e-02 0.0000000000000000e+00  -5.2441706809709578e-03 7.0777620481378778e-03 0.0000000000000000e+00  -2.5562749984532978e-03 1.1327905678906571e-02 0.0000000000000000e+00  -1.1794294272874694e-02 2.6717027756621416e-02 0.0000000000000000e+00  2.9223015776331370e-03 3.2653061224489799e-02 0.0000000000000000e+00  -4.5750981458671592e-03 1.9027638278218437e-02 0.0000000000000000e+00  1.3440072525695034e-03 2.2069547096846857e-03 0.0000000000000000e+00  3.7656463411075529e-03 4.0369048364932965e-03 0.0000000000000000e+00  5.1000090109857071e-03 6.9462141156541347e-03 0.0000000000000000e+00  -7.7049091965430789e-03 3.2653061224489799e-02 0.0000000000000000e+00  -2.8074815666118977e-03 3.2653061224489799e-02 0.0000000000000000e+00  2.4827270481863474e-03 1.1129943058219552e-02 0.0000000000000000e+00  1.2958751864807369e-02 3.2653061224489799e-02 0.0000000000000000e+00  1.3433839380197392e-02 3.0655298568172208e-02 0.0000000000000000e+00  -1.4985095998311998e-03 2.2369601757337935e-03 0.0000000000000000e+00  1.1921457986319163e-02 2.9706136575244336e-02 0.0000000000000000e+00  9.5426366325701366e-04 3.6841091198711300e-03 0.0000000000000000e+00  -2.8953562607394318e-03 7.9932268502392757e-03 0.0000000000000000e+00  1.2166898956560732e-02 2.7787104304657615e-02 0.0000000000000000e+00  4.2220034027932859e-03 8.6391362672139232e-03 0.0000000000000000e+00  -7.9679938000751227e-04 1.1514385161373541e-03 0.0000000000000000e+00  -3.3812367158378787e-03 1.0046007266194786e-02 0.0000000000000000e+00  1.7728642941092360e-03 4.4070583502177629e-03 0.0000000000000000e+00  1.6780907854967679e-04 1.3417898063847803e-03 0.0000000000000000e+00  -4.6958365132770937e-03 1.3404948563093679e-02 0.0000000000000000e+00  -5.4884321608679688e-03 2.6006933396364104e-02 0.0000000000000000e+00  1.3553273353014368e-05 5.7284658784967513e-03 0.0000000000000000e+00  7.3343743909856122e-03 2.0913117858797278e-02 0.0000000000000000e+00  -8.9011736074582383e-03 2.2207643858016726e-02 0.0000000000000000e+00  -9.7414428759450304e-04 3.4550818415023735e-03 0.0000000000000000e+00  -1.2077489287903387e-02 2.7569979638362583e-02 0.0000000000000000e+00  9.1113333709060274e-03 2.8488798101485541e-02 0.0000000000000000e+00  -1.3432914312871750e-03 2.0966935121869367e-03 0.0000000000000000e+00  -6.6531394740072889e-03 1.4825021679606422e-02 0.0000000000000000e+00  4.6129759098264764e-03 1.4383317567623524e-02 0.0000000000000000e+00  8.0258239793834507e-04 1.2376902173812446e-03 0.0000000000000000e+00  -2.0398145748291101e-03 4.4302106452123883e-03 0.0000000000000000e+00  1.8183054280727351e-03 1.5062263767735834e-02 0.0000000000000000e+00  2.8624004795788846e-03 1.3736338997917851e-02 0.0000000000000000e+00  -1.6763159418203297e-03 4.0926179967413290e-03 0.0000000000000000e+00  7.0642262915199053e-03 1.5846971217685742e-02 0.0000000000000000e+00  -6.0014039595329919e-03 1.6788448727595197e-02 0.0000000000000000e+00  -1.9435165387156530e-03 6.3455226493150507e-03 0.0000000000000000e+00  1.5610615298481945e-03 2.6051678117586957e-03 0.0000000000000000e+00  1.1928217734746682e-03 7.0873641422196151e-03 0.0000000000000000e+00  3.2505508868001750e-03 9.9311674692136778e-03 0.0000000000000000e+00  5.2484728244897244e-03 2.5388691791401095e-02 0.0000000000000000e+00  2.0850714425278889e-03 7.4575194148741733e-03 0.0000000000000000e+00  1.9949333782446448e-03 1.0626492097830870e-02 0.0000000000000000e+00  -2.0439743472537740e-03 1.0798514209405218e-02 0.0000000000000000e+00  -1.1917060585340464e-03 7.4081759452856609e-03 0.0000000000000000e+00  -8.7536316643174079e-03 2.0335558639597358e-02 0.0000000000000000e+00  9.0880468274642089e-03 2.2575557694924420e-02 0.0000000000000000e+00  8.3444201098917571e-03 1.9652915791794907e-02 0.0000000000000000e+00  -3.4492565202306905e-03 4.7904072828573920e-03 0.0000000000000000e+00  -7.7896510799141602e-03 1.8361607119800474e-02 0.0000000000000000e+00  -2.2914930777075647e-04 6.0766165715324160e-03 0.0000000000000000e+00  3.9287594086049931e-03 6.0862208739305406e-03 0.0000000000000000e+00  -1.8729993284178774e-05 1.6330789243216772e-03 0.0000000000000000e+00  -9.0201618385867231e-03 2.2455629102969138e-02 0.0000000000000000e+00  -7.3279943223564081e-03 1.6985720239193529e-02 0.0000000000000000e+00  7.1007711374605964e-03 1.6532019251671463e-02 0.0000000000000000e+00  -1.0208451819982792e-02 2.9678584045705798e-02 0.0000000000000000e+00  2.9303745496876512e-03 7.2383822731802586e-03 0.0000000000000000e+00  9.9186681429660872e-03 2.3234156351084386e-02 0.0000000000000000e+00  6.7294300083463520e-03 1.8259770015823028e-02 0.0000000000000000e+00  -2.1882180365308205e-03 7.932551044503145