<?xml version="1.0"?>
<VTKFile type="UnstructuredGrid"  version="0.1"  >
<UnstructuredGrid>
<Piece  NumberOfPoints="5173" NumberOfCells="9966">
<Points>
<DataArray  type="Float64"  NumberOfComponents="3"  format="ascii">-0.5 0.5 0  -0.5 -0.5 0  0.5 -0.5 0  0.5 0.5 0  0.1998669600420274 0.02125869712947308 0  0.201 0 0  0.1998669600420274 -0.02125869712947312 0  0.1964806779635733 -0.04227652472592507 0  0.1908795216936763 -0.06281534240438978 0  0.1831269545709826 -0.08264243715367564 0  0.1733108162787611 -0.1015331600677681 0  0.1615423275861927 -0.1192734717077003 0  0.1479548301726135 -0.1356623672539232 0  0.1327022758130076 -0.1505141539712278 0  0.1159574820428814 -0.1636605551816338 0  0.09791017406652992 -0.1749526169063923 0  0.07876483509466403 -0.1842623955740826 0  0.05873838946792427 -0.1914844076724011 0  0.03805774481742277 -0.1965368249185042 0  0.01695722111061653 -0.1993624014061501 0  -0.004324104287555032 -0.1999291222246905 0  -0.02554510545674447 -0.1982305662008014 0  -0.04646533997422303 -0.194285978652942 0  -0.06684777322360611 -0.1881400533342067 0  -0.08646146409177112 -0.1798624260342438 0  -0.1050841816239485 -0.1695468855779342 0  -0.1225049229892384 -0.1573103111605285 0  -0.138526304226997 -0.143291348059663 0  -0.1529667966859812 -0.127648836728964 0  -0.165662783816503 -0.1105600130722386 0  -0.1764704150113143 -0.0922185002898652 0  -0.1852672354904677 -0.07283211505056446 0  -0.1919535737629032 -0.05262051284550421 0  -0.1964536709442689 -0.03181269920381437 0  -0.1987165391353524 -0.0106444349684357 0  -0.1987165391353524 0.01064443496843575 0  -0.1964536709442689 0.03181269920381442 0  -0.1919535737629032 0.05262051284550433 0  -0.1852672354904677 0.07283211505056443 0  -0.1764704150113143 0.09221850028986515 0  -0.165662783816503 0.1105600130722387 0  -0.1529667966859812 0.1276488367289641 0  -0.1385263042269969 0.1432913480596631 0  -0.1225049229892383 0.1573103111605285 0  -0.1050841816239485 0.1695468855779342 0  -0.08646146409177108 0.1798624260342438 0  -0.06684777322360606 0.1881400533342067 0  -0.04646533997422297 0.194285978652942 0  -0.02554510545674437 0.1982305662008015 0  -0.004324104287554939 0.1999291222246905 0  0.01695722111061662 0.19936240140615 0  0.03805774481742286 0.1965368249185042 0  0.05873838946792424 0.1914844076724011 0  0.07876483509466414 0.1842623955740826 0  0.09791017406653006 0.1749526169063922 0  0.1159574820428814 0.1636605551816338 0  0.1327022758130078 0.1505141539712277 0  0.1479548301726135 0.1356623672539232 0  0.1615423275861927 0.1192734717077003 0  0.1733108162787612 0.101533160067768 0  0.1831269545709827 0.08264243715367564 0  0.1908795216936763 0.06281534240438975 0  0.1964806779635734 0.04227652472592486 0  0 -0.5 0  0 0.5 0  -0.5 0 0  0.5 0 0  0.25 -0.5 0  0.25 0.5 0  0.5 0.25 0  0.5 -0.25 0  -0.25 0.5 0  -0.25 -0.5 0  -0.5 -0.25 0  -0.5 0.25 0  0.2918258229480683 0.2918258229480682 0  0.2865867850624828 -0.2932931940421196 0  -0.2962949893701896 0.274449924397287 0  -0.2913160373738303 -0.2913160373738304 0  -0.125 0.3636995408959175 0  0.3637738468862107 -0.1261303957107176 0  0.125 0.3665964626830409 0  0.3640958654762797 0.1232161970438493 0  -0.3624000654276585 -0.1218337159209422 0  -0.125 -0.3668200952157802 0  0.125 -0.3712838880907947 0  -0.3600991828528437 0.1089843577122111 0  -0.5 0.375 0  0.5 -0.375 0  -0.375 -0.5 0  0.5 0.375 0  -0.375 0.5 0  0.375 -0.5 0  -0.5 -0.375 0  0.375 0.5 0  0.0006860903712339345 -0.3306266888645853 0  -0.000109901520948898 0.3746323380112415 0  -0.5 0.125 0  -0.125 -0.5 0  -0.5 -0.125 0  0.5 0.125 0  0.5 -0.125 0  0.125 -0.5 0  -0.125 0.5 0  0.125 0.5 0  0.3748576787807123 -0.001471205609738957 0  -0.3738828512115154 0.3738828512115154 0  -0.3827617049088436 -0.006210238480157219 0  -0.2429234745416257 0.3810213699917807 0  0.3769180353829246 -0.3769180353829246 0  -0.3777687524152424 -0.3777687524152424 0  0.3780704009792175 0.3780704009792175 0  -0.1776483227107271 -0.2618630460446135 0  -0.2604485542051718 -0.1787215021996984 0  -0.1798547561877991 0.2599748505350166 0  0.3864703130478905 -0.2380123189195306 0  0.1785319646943122 0.2625417448451246 0  0.261692611046212 0.1791168901036931 0  0.2607171500730768 -0.1799460669666111 0  0.1733970740599892 -0.2651674952354912 0  -0.3880520258539732 -0.2322407641539351 0  -0.2352016482221373 -0.388638232840279 0  0.2734696242623063 0.3964265996649794 0  0.3883795026617865 0.233417864889234 0  0.2738670858792859 -0.3976331321261044 0  -0.2491638954018168 0.1780101911767213 0  -0.3926686215746083 0.2165776265637375 0  0.07109213498061834 0.2869023807262104 0  -0.2934183534017453 0.03147305416145122 0  -0.08119265072200343 -0.2826195781877594 0  0.2836913223256923 -0.07709296110799269 0  -0.0558729689268372 0.2928347535333279 0  0.2830965643121598 0.07693076420704528 0  0.08122371629649494 -0.2825469282280794 0  -0.2767834230915197 -0.08819590430941976 0  0.1875 0.4332982313415205 0  -0.04303186331845871 -0.4151376431551652 0  0.190970733019215 -0.4322714131851434 0  0.06249999999999999 -0.4356419440453974 0  0.4328061849987423 0.06633847947711793 0  0.0664712649494027 0.4332982313415205 0  -0.06249999999999998 0.4373709104419552 0  0.4341377633941729 0.309372588857957 0  -0.4374372828954266 -0.3125 0  -0.3104572497507675 -0.4353019888851174 0  0.4374701104890421 -0.3125 0  -0.3116291712721947 0.4366347031852421 0  -0.4374901042687089 0.3125 0  -0.4363926600558238 0.4363926600558238 0  -0.5 0.0625 0  0.5 -0.0625 0  0.5 -0.4375 0  -0.4375 -0.5 0  0.5 0.4375 0  -0.1875 0.5 0  -0.4323246583268963 -0.07454303397230311 0  0.2154950463309389 -0.3375719358844427 0  0.206977802238796 0.342973363124546 0  0.4322596267199844 -0.1704803839098939 0  -0.1690769129391571 -0.4334100476078901 0  0.5 0.1875 0  -0.5 -0.1875 0  0.2967149326504868 -2.965984816150069e-05 0  -0.2579082457853068 0.1006999711688991 0  -0.4261732609354634 -0.1652001701086123 0  0.4197274728231854 -0.06828306080156128 0  0.4316260558094222 0.15625 0  -0.1765935890523967 0.4225213035878151 0  -0.326101012911042 0.1780020696215199 0  -0.3639018823524438 -0.3051829074366289 0  -0.4219359613016062 0.06132313683084987 0  -0.368871881750981 0.2861301036496543 0  -0.3031928482819811 -0.3630024307590357 0  0.3125 0.5 0  0.3355547846059301 -0.437829382399898 0  0.3620936304880762 0.3078025934392096 0  -0.4265460575686851 0.1475964618934338 0  0.4375 -0.5 0  -0.5 -0.4375 0  0.4375 0.5 0  0.3587983613906559 -0.3058906763528768 0  -0.1889171018677358 -0.3331988582480375 0  0.3319769361362775 -0.1908238194547704 0  0.3337713745363715 0.4328433800405805 0  -0.3319644446835826 -0.1870886352472088 0  0.3329253892881625 0.1878611701133833 0  0.4281511341447153 -0.4281511341447153 0  -0.232840147849867 0.3093215053326949 0  -0.40625 -0.4395608850352885 0  0.428794887401249 0.428794887401249 0  -0.3380841551254475 -0.05794700007688498 0  0.008054260670409629 -0.2648994211243904 0  0.1899220001124564 -0.1947534447033338 0  -0.3080416507322476 0.3708200057439822 0  -0.06307278823153059 -0.3455430469652901 0  0.06447087227249242 -0.3459780260685607 0  0.1914876772934198 0.1922953616824615 0  0.1267822167193652 -0.4357424153550361 0  -0.1100367963981227 0.2468729543145758 0  -0.1040301628609493 -0.4382371732506554 0  0.008496887133013969 0.3088587185741126 0  -0.1939711685411953 -0.1799889819170536 0  0.1169089524024441 0.2383640108781663 0  -0.5 0.1875 0  -0.06301873836730842 0.3744639870876723 0  0.0612272731888486 0.3516549422231338 0  0.0001842875295821901 0.4373159592812666 0  0.315570863666392 0.3499038328432952 0  0.43737589643705 0.003767781375474147 0  0.3480437072584214 -0.06190943679164183 0  0.3704548124556613 0.06095691071954262 0  0.3139725644615085 -0.3495769689516506 0  0.5 -0.1875 0  -0.5 -0.0625 0  -0.5 0.3125 0  -0.1875 -0.5 0  -0.3125 0.5 0  -0.3125 -0.5 0  -0.5 -0.3125 0  0.5 0.3125 0  -0.0625 0.5 0  0.5 0.0625 0  0.0625 -0.5 0  0.1875 -0.5 0  0.3125 -0.5 0  0.1875 0.5 0  0.0625 0.5 0  0.5 -0.3125 0  -0.4375 0.5 0  -0.5 0.4375 0  -0.0625 -0.5 0  -0.3740130545720807 0.4376162026208867 0  0.2356432480937504 -0.1203529309141897 0  0.2354253261260549 0.120280228505195 0  -0.4358389466402443 0.374436564627095 0  -0.1837098359759774 0.1929485386776155 0  -0.1210077767998366 -0.2331474219302516 0  -0.4388230181844467 -0.3736756227341544 0  0.2385916116983025 -0.2446215854929363 0  0.01618154697154811 -0.392205807603664 0  0.3033224724982568 0.1345019962362828 0  0.1269856324747013 0.4273682536406486 0  -0.2618767198442009 -0.02513308225372456 0  -0.1869024341550137 0.3523407916866587 0  0.4460792014197047 0.2150519456240759 0  -0.228067921023645 -0.1261420173261541 0  0.4375111104956734 0.3693541778847931 0  -0.2344434115929863 0.441225502334267 0  -0.1349409233725989 -0.3081519167298867 0  0.2361921270004774 0.236858231392783 0  -0.1134625589296566 0.3058057213872041 0  0.1364902237265291 -0.2193600350069504 0  -0.231009496195906 -0.2899916451544192 0  -0.4420301468408164 -0.0153626464053197 0  -0.3638407636123014 0.04989392276612995 0  -0.2281634567999949 -0.2293698735254731 0  -0.2404608239114909 0.2480193450766527 0  0.1548586079872366 0.3161601351946364 0  -0.2905808065687782 -0.2309892133488608 0  0.1583090638615736 -0.3223807786382032 0  0.3037640590628244 -0.1367963242859415 0  0.441474411355182 -0.3710236808063671 0  -0.1184457037417267 0.4214861255011078 0  0.3280783743867655 -0.2503846686276005 0  0.4421147536667354 -0.254616967737483 0  -0.4419160956032748 -0.2544205585064326 0  -0.3074463395544132 -0.1359279022829991 0  0.3366964226424555 0.256991018383815 0  -0.4508616135570574 0.21875 0  -0.3395120610056381 0.2372377549435862 0  -0.2261617732606898 -0.4465036260914809 0  0.2350726063974556 0.2936290504086719 0  0.007756726855498133 0.253726523067807 0  0.2816091581197124 -0.4531847002458751 0  0.002693579241951911 -0.4452927028974097 0  0.2614770372227774 0.3432624384800261 0  0.2905620892368345 0.2263682042801985 0  -0.2876366597373845 0.2178464403043631 0  0.2807413030307
[...]
<PointData  Vectors="f_44"> 
<DataArray  type="Float64"  Name="f_44"  NumberOfComponents="3" format="ascii">-6.5679069795744468e-03 1.6734693877551021e-01 0.0000000000000000e+00  -1.9364649709170659e-04 3.7051062718274162e-04 0.0000000000000000e+00  1.5367052875916629e-04 3.2379725491523201e-04 0.0000000000000000e+00  -7.0439852395563123e-03 1.6734693877551021e-01 0.0000000000000000e+00  0.0000000000000000e+00 0.0000000000000000e+00 0.0000000000000000e+00  0.0000000000000000e+00 0.0000000000000000e+00 0.0000000000000000e+00  0.0000000000000000e+00 0.0000000000000000e+00 0.0000000000000000e+00  0.0000000000000000e+00 0.0000000000000000e+00 0.0000000000000000e+00  0.0000000000000000e+00 0.0000000000000000e+00 0.0000000000000000e+00  0.0000000000000000e+00 0.0000000000000000e+00 0.0000000000000000e+00  0.0000000000000000e+00 0.0000000000000000e+00 0.0000000000000000e+00  0.0000000000000000e+00 0.0000000000000000e+00 0.0000000000000000e+00  0.0000000000000000e+00 0.0000000000000000e+00 0.0000000000000000e+00  0.0000000000000000e+00 0.0000000000000000e+00 0.0000000000000000e+00  0.0000000000000000e+00 0.0000000000000000e+00 0.0000000000000000e+00  0.0000000000000000e+00 0.0000000000000000e+00 0.0000000000000000e+00  0.0000000000000000e+00 0.0000000000000000e+00 0.0000000000000000e+00  0.0000000000000000e+00 0.0000000000000000e+00 0.0000000000000000e+00  0.0000000000000000e+00 0.0000000000000000e+00 0.0000000000000000e+00  0.0000000000000000e+00 0.0000000000000000e+00 0.0000000000000000e+00  0.0000000000000000e+00 0.0000000000000000e+00 0.0000000000000000e+00  0.0000000000000000e+00 0.0000000000000000e+00 0.0000000000000000e+00  0.0000000000000000e+00 0.0000000000000000e+00 0.0000000000000000e+00  0.0000000000000000e+00 0.0000000000000000e+00 0.0000000000000000e+00  0.0000000000000000e+00 0.0000000000000000e+00 0.0000000000000000e+00  0.0000000000000000e+00 0.0000000000000000e+00 0.0000000000000000e+00  0.0000000000000000e+00 0.0000000000000000e+00 0.0000000000000000e+00  0.0000000000000000e+00 0.0000000000000000e+00 0.0000000000000000e+00  0.0000000000000000e+00 0.0000000000000000e+00 0.0000000000000000e+00  0.0000000000000000e+00 0.0000000000000000e+00 0.0000000000000000e+00  0.0000000000000000e+00 0.0000000000000000e+00 0.0000000000000000e+00  0.0000000000000000e+00 0.0000000000000000e+00 0.0000000000000000e+00  0.0000000000000000e+00 0.0000000000000000e+00 0.0000000000000000e+00  0.0000000000000000e+00 0.0000000000000000e+00 0.0000000000000000e+00  0.0000000000000000e+00 0.0000000000000000e+00 0.0000000000000000e+00  0.0000000000000000e+00 0.0000000000000000e+00 0.0000000000000000e+00  0.0000000000000000e+00 0.0000000000000000e+00 0.0000000000000000e+00  0.0000000000000000e+00 0.0000000000000000e+00 0.0000000000000000e+00  0.0000000000000000e+00 0.0000000000000000e+00 0.0000000000000000e+00  0.0000000000000000e+00 0.0000000000000000e+00 0.0000000000000000e+00  0.0000000000000000e+00 0.0000000000000000e+00 0.0000000000000000e+00  0.0000000000000000e+00 0.0000000000000000e+00 0.0000000000000000e+00  0.0000000000000000e+00 0.0000000000000000e+00 0.0000000000000000e+00  0.0000000000000000e+00 0.0000000000000000e+00 0.0000000000000000e+00  0.0000000000000000e+00 0.0000000000000000e+00 0.0000000000000000e+00  0.0000000000000000e+00 0.0000000000000000e+00 0.0000000000000000e+00  0.0000000000000000e+00 0.0000000000000000e+00 0.0000000000000000e+00  0.0000000000000000e+00 0.0000000000000000e+00 0.0000000000000000e+00  0.0000000000000000e+00 0.0000000000000000e+00 0.0000000000000000e+00  0.0000000000000000e+00 0.0000000000000000e+00 0.0000000000000000e+00  0.0000000000000000e+00 0.0000000000000000e+00 0.0000000000000000e+00  0.0000000000000000e+00 0.0000000000000000e+00 0.0000000000000000e+00  0.0000000000000000e+00 0.0000000000000000e+00 0.0000000000000000e+00  0.0000000000000000e+00 0.0000000000000000e+00 0.0000000000000000e+00  0.0000000000000000e+00 0.0000000000000000e+00 0.0000000000000000e+00  0.0000000000000000e+00 0.0000000000000000e+00 0.0000000000000000e+00  0.0000000000000000e+00 0.0000000000000000e+00 0.0000000000000000e+00  0.0000000000000000e+00 0.0000000000000000e+00 0.0000000000000000e+00  0.0000000000000000e+00 0.0000000000000000e+00 0.0000000000000000e+00  0.0000000000000000e+00 0.0000000000000000e+00 0.0000000000000000e+00  0.0000000000000000e+00 0.0000000000000000e+00 0.0000000000000000e+00  0.0000000000000000e+00 0.0000000000000000e+00 0.0000000000000000e+00  0.0000000000000000e+00 0.0000000000000000e+00 0.0000000000000000e+00  -1.9064416418746513e-05 6.3316483923220548e-05 0.0000000000000000e+00  -6.7922544361255612e-03 1.6734693877551021e-01 0.0000000000000000e+00  7.1740614055966517e-05 6.0037680033805073e-04 0.0000000000000000e+00  -8.1513389086350057e-05 5.4118123666393049e-04 0.0000000000000000e+00  1.2950226838921247e-04 1.6280209379667423e-04 0.0000000000000000e+00  -6.9444401840636416e-03 1.6734693877551018e-01 0.0000000000000000e+00  -7.6473200315248192e-03 1.6633327144976920e-01 0.0000000000000000e+00  5.3550145298364615e-05 3.4810237263888165e-04 0.0000000000000000e+00  -6.6726132521561440e-03 1.6734693877551021e-01 0.0000000000000000e+00  -1.6943229070853148e-04 1.8634904091644622e-04 0.0000000000000000e+00  -7.3423566206466293e-05 3.9493430542730210e-04 0.0000000000000000e+00  -1.2279887704964119e-03 1.6105577380573730e-01 0.0000000000000000e+00  -6.9889335537951141e-03 1.6707583988851077e-01 0.0000000000000000e+00  6.5863583768875717e-05 1.7991081216253468e-04 0.0000000000000000e+00  -6.5608470824748176e-03 1.6701193872570522e-01 0.0000000000000000e+00  -8.7921427982326933e-05 2.1155047177105342e-04 0.0000000000000000e+00  -6.7082787654030472e-03 1.6722164181600177e-01 0.0000000000000000e+00  3.1493892623210039e-05 2.9180072591795150e-04 0.0000000000000000e+00  -6.8959518393276959e-03 1.6717773304810662e-01 0.0000000000000000e+00  -1.8983314229566411e-04 4.6847605676354201e-04 0.0000000000000000e+00  -4.3445100268812779e-05 3.2765596775275336e-04 0.0000000000000000e+00  -6.1379634020595149e-05 7.7289798631394711e-05 0.0000000000000000e+00  3.6312598998226068e-05 6.7507095259729862e-05 0.0000000000000000e+00  1.5314869154185062e-04 4.8696501817163050e-04 0.0000000000000000e+00  -6.5216020956932567e-03 1.6710345837049206e-01 0.0000000000000000e+00  9.4143928824339310e-05 3.2445035726058581e-04 0.0000000000000000e+00  -1.9308794468243334e-04 2.8714320729683113e-04 0.0000000000000000e+00  -7.0586370502591358e-03 1.6717171387431698e-01 0.0000000000000000e+00  -6.6260141687485424e-03 1.6734693877551021e-01 0.0000000000000000e+00  1.5294916371928375e-04 2.5158105482655309e-04 0.0000000000000000e+00  -1.2331402769171030e-04 3.7106975180537595e-04 0.0000000000000000e+00  -6.9974656254685342e-03 1.6734693877551018e-01 0.0000000000000000e+00  -9.8977276289722269e-06 2.9938057620179268e-05 0.0000000000000000e+00  -6.7995734508169538e-03 1.6718517528572160e-01 0.0000000000000000e+00  2.4959512247579494e-04 7.9452847808409951e-04 0.0000000000000000e+00  -1.0693218258620530e-04 9.9953193237533773e-05 0.0000000000000000e+00  -2.0559212882660035e-05 4.6731307259055354e-04 0.0000000000000000e+00  -2.4936771351667729e-04 7.0932067713125367e-04 0.0000000000000000e+00  7.1766605978541069e-06 4.1824284384781073e-04 0.0000000000000000e+00  6.8257926536292629e-05 8.8648149262170748e-05 0.0000000000000000e+00  -6.7216931507705462e-03 1.6734693877551021e-01 0.0000000000000000e+00  -6.8747124436730356e-03 1.6734693877551021e-01 0.0000000000000000e+00  -4.2604721721284990e-05 3.7656136720065582e-04 0.0000000000000000e+00  -6.5834734255566761e-03 1.6718759057817084e-01 0.0000000000000000e+00  2.8631580750347661e-05 4.2741831856392767e-04 0.0000000000000000e+00  -6.6542369244863364e-03 1.6723376039766319e-01 0.0000000000000000e+00  9.4050046803706170e-05 2.5328893161025043e-04 0.0000000000000000e+00  -1.2369450379260728e-04 2.8975985592420808e-04 0.0000000000000000e+00  -7.0166199655585003e-03 1.6720782805390633e-01 0.0000000000000000e+00  -5.6071351094814279e-05 9.2134715168844158e-05 0.0000000000000000e+00  -5.7742098966823035e-05 1.7060602165187928e-04 0.0000000000000000e+00  1.3389689072278280e-04 5.9416664658337108e-04 0.0000000000000000e+00  5.9971435684497207e-05 2.8050568219648687e-04 0.0000000000000000e+00  -6.3537138182291767e-03 1.6645732339959265e-01 0.0000000000000000e+00  -1.9835870523705247e-04 3.3758067260187624e-04 0.0000000000000000e+00  4.5155371326184777e-05 1.4896010476648930e-04 0.0000000000000000e+00  3.9190605769291475e-05 7.5901049475579304e-05 0.0000000000000000e+00  -7.7396757890837886e-05 3.2100468270401556e-04 0.0000000000000000e+00  -1.0427268558237114e-04 1.6317256531205013e-04 0.0000000000000000e+00  -6.9664183176131383e-03 1.6722170836358261e-01 0.0000000000000000e+00  -6.9513726533304765e-03 1.6655553089808595e-01 0.0000000000000000e+00  8.6788351725589934e-05 1.7252230757707827e-04 0.0000000000000000e+00  1.7764796883171970e-04 2.9303870187276159e-04 0.0000000000000000e+00  3.6120804144582639e-04 7.8110897283356260e-04 0.0000000000000000e+00  -7.0130893506441605e-03 1.6660962652465733e-01 0.0000000000000000e+00  3.5059232149932047e-05 2.6969432685267335e-04 0.0000000000000000e+00  -3.0019711983377801e-05 3.5567981435279176e-05 0.0000000000000000e+00  1.9915316609141385e-05 1.8614954555873790e-04 0.0000000000000000e+00  -7.6659857600597974e-03 1.6486911294463991e-01 0.0000000000000000e+00  -7.9481571573897973e-05 2.6253810423445303e-04 0.0000000000000000e+00  1.4894911263890887e-05 3.0159652109678435e-05 0.0000000000000000e+00  -3.2489160694213992e-05 1.9484431597942753e-04 0.0000000000000000e+00  -6.9160813779288342e-03 1.6726386515981403e-01 0.0000000000000000e+00  -3.5752594215125448e-05 5.2807174069992176e-05 0.0000000000000000e+00  7.3945069008596469e-05 1.1457299879578322e-04 0.0000000000000000e+00  1.6876472862511126e-05 5.6257907169153328e-05 0.0000000000000000e+00  -1.3404981382960282e-04 5.2590134296208663e-04 0.0000000000000000e+00  -6.8413416251336340e-03 1.6726109375254022e-01 0.0000000000000000e+00  -6.7523555455315824e-03 1.6727897910455325e-01 0.0000000000000000e+00  -7.0719817811881842e-03 1.6713256798023809e-01 0.0000000000000000e+00  -9.9889431555481446e-05 3.4354984929195801e-04 0.0000000000000000e+00  -1.4238485757505186e-04 2.3248727931712845e-04 0.0000000000000000e+00  7.5600171078239351e-05 3.0194794655311459e-04 0.0000000000000000e+00  -6.6414946600128052e-03 1.6727849656520430e-01 0.0000000000000000e+00  -6.4754945160661291e-03 1.6706277567450875e-01 0.0000000000000000e+00  -6.5893138348548713e-03 1.6724914699649601e-01 0.0000000000000000e+00  1.4593157964190305e-04 6.9026366764929640e-04 0.0000000000000000e+00  -2.9551262555666074e-05 4.7325345068535165e-04 0.0000000000000000e+00  1.2135992742797669e-04 3.2335486841935686e-04 0.0000000000000000e+00  -1.9408930533038954e-04 3.3139663982726259e-04 0.0000000000000000e+00  -7.0472671024826416e-03 1.6726159379748470e-01 0.0000000000000000e+00  -6.6958554395378442e-03 1.6734693877551021e-01 0.0000000000000000e+00  -8.4450926497458902e-06 4.4821290614032117e-04 0.0000000000000000e+00  5.9343151855902382e-05 1.2091506523247139e-04 0.0000000000000000e+00  -6.9447750163760301e-03 1.6715140314590732e-01 0.0000000000000000e+00  3.8073175040456955e-05 3.4420077778184860e-04 0.0000000000000000e+00  -9.8617722621148108e-05 1.1638877644963654e-04 0.0000000000000000e+00  -4.1190553330730907e-04 8.5798514321991641e-04 0.0000000000000000e+00  -4.9415648610630666e-05 4.2408777792078494e-04 0.0000000000000000e+00  -2.0955862043423317e-05 2.3681729939458105e-04 0.0000000000000000e+00  8.1778490352630328e-05 2.3309963995953029e-04 0.0000000000000000e+00  -5.2599314732759192e-05 3.8417598917034541e-04 0.0000000000000000e+00  -5.3880415674436221e-06 3.9163047484645975e-04 0.0000000000000000e+00  -2.8180133754363154e-04 6.1784852364876958e-04 0.0000000000000000e+00  -6.6941930394717039e-03 1.6727860882671927e-01 0.0000000000000000e+00  2.4487894868383475e-04 4.9209917644201700e-04 0.0000000000000000e+00  -9.7816864786676636e-05 2.8387610915846137e-04 0.0000000000000000e+00  1.1268390988483529e-04 5.6089587265395686e-04 0.0000000000000000e+00  -6.5052113597061324e-03 1.6702824530535063e-01 0.0000000000000000e+00  -1.1002490961823081e-04 2.2378416911189906e-04 0.0000000000000000e+00  -6.9731104995684945e-03 1.6734693877551018e-01 0.0000000000000000e+00  1.1358586950539267e-04 2.2208846333230374e-04 0.0000000000000000e+00  -7.0328097711147824e-03 1.6712354764198090e-01 0.0000000000000000e+00  2.5938378509580723e-04 6.7417471907461738e-04 0.0000000000000000e+00  1.5406086393595983e-04 2.9013204590619266e-04 0.0000000000000000e+00  -1.5587993420719128e-04 3.7009294662867522e-04 0.0000000000000000e+00  -7.0198375291362766e-03 1.6734693877551021e-01 0.0000000000000000e+00  7.4217403920428149e-05 2.4466430133190600e-04 0.0000000000000000e+00  -7.5099352032133770e-05 1.1664120248501999e-04 0.0000000000000000e+00  5.1309169946779305e-05 2.3513139005225370e-04 0.0000000000000000e+00  -6.9870887593228952e-03 1.6726857987298432e-01 0.0000000000000000e+00  -6.6039993373100285e-05 2.6742742438411854e-04 0.0000000000000000e+00  -2.8015846829495508e-04 5.2663565795936669e-04 0.0000000000000000e+00  1.1645479824616995e-04 2.8521918113964508e-04 0.0000000000000000e+00  -6.6254936600710626e-03 1.6714391001861595e-01 0.0000000000000000e+00  -1.5561391888032890e-04 3.0995401385675568e-04 0.0000000000000000e+00  -7.0215756864112000e-03 1.6726084347634165e-01 0.0000000000000000e+00  -1.5892925373788707e-05 3.1629829124963526e-04 0.0000000000000000e+00  -3.8175504580197818e-06 1.4145681570203898e-05 0.0000000000000000e+00  3.3150897884724605e-05 7.0608860817948416e-05 0.0000000000000000e+00  -6.6169571868627229e-03 1.6720612089734349e-01 0.0000000000000000e+00  -3.4270052561683544e-05 4.4586623078660203e-05 0.0000000000000000e+00  1.2320904194059602e-05 4.0003066207084746e-05 0.0000000000000000e+00  -1.3330372360929348e-04 1.9556589121283956e-04 0.0000000000000000e+00  4.8235857360720025e-05 7.8678706172179049e-05 0.0000000000000000e+00  1.0222307664014641e-04 1.2870749186158769e-04 0.0000000000000000e+00  -7.0714222968494295e-05 7.8649870915196418e-05 0.0000000000000000e+00  -6.8250309477214622e-03 1.6694917303933773e-01 0.0000000000000000e+00  -4.0902147214211411e-05 8.2253180598035983e-05 0.0000000000000000e+00  -9.2390087837600801e-05 1.8721720202573075e-04 0.0000000000000000e+00  4.1149576924078219e-04 9.2900354392591968e-04 0.0000000000000000e+00  -6.7490888155472594e-03 1.6720548584340428e-01 0.0000000000000000e+00  -6.8568888327179356e-03 1.6713998239700820e-01 0.0000000000000000e+00  -6.7939096476324051e-03 1.6727000290913893e-01 0.0000000000000000e+00  -6.9965884366074566e-03 1.6716830566905594e-01 0.0000000000000000e+00  -6.5111986611268737e-05 4.7205596229915185e-04 0.0000000000000000e+00  5.1848654213607513e-06 2.9764819962593185e-04 0.0000000000000000e+00  -1.0509162008107251e-04 4.1935826175414667e-04 0.0000000000000000e+00  8.0442474900353336e-05 2.0421400586229449e-04 0.0000000000000000e+00  3.3407297302557214e-05 3.7653335517740774e-04 0.0000000000000000e+00  1.8196225176849473e-05 5.2588982155703267e-04 0.0000000000000000e+00  -6.4266221303241550e-03 1.6694677655414106e-01 0.0000000000000000e+00  -1.4271368368373627e-04 1.3880308602406044e-04 0.0000000000000000e+00  -6.6496555533791151e-03 1.6734693877551021e-01 0.0000000000000000e+00  -1.8577507235899315e-04 2.3758166677933764e-04 0.0000000000000000e+00  -9.6681922175763030e-05 3.7811174449849778e-04 0.0000000000000000e+00  -7.0982769957976940e-03 1.6705733847546506e-01 0.0000000000000000e+00  -6.7535712261948154e-03 1.6734693877551021e-01 0.0000000000000000e+00  -1.5274920911866153e-04 6.2023042863688059e-04 0.0000000000000000e+00  2.6322474188642026e-05 6.8426288440953128e-05 0.0000000000000000e+00  1.0333058774939141e-04 1.2132686532848835e-04 0.0000000000000000e+00  1.4571689631304917e-04 2.0787677264474453e-04 0.0000000000000000e+00  -6.9115095549659661e-03 1.6734693877551024e-01 0.0000000000000000e+00  -6.8341945102905798e-03 1.6734693877551024e-01 0.0000000000000000e+00  7.2419675919385077e-05 3.3148613937603310e-04 0.0000000000000000e+00  -6.5998991588844596e-03 1.6734693877551021e-01 0.0000000000000000e+00  -6.5571973217318641e-03 1.6722753208990698e-01 0.0000000000000000e+00  -6.4706037774927460e-05 7.4085908586230253e-05 0.0000000000000000e+00  -6.6161200133099942e-03 1.6726833712654751e-01 0.0000000000000000e+00  2.8848245200549906e-05 1.0650175630723422e-04 0.0000000000000000e+00  -9.0347745219155218e-05 1.9151399042997250e-04 0.0000000000000000e+00  -6.5534707148937272e-03 1.6715767938201825e-01 0.0000000000000000e+00  1.2466827708668786e-04 1.5275244384803331e-04 0.0000000000000000e+00  -3.0738921981090184e-05 3.9189880733639922e-05 0.0000000000000000e+00  -1.2364584928690775e-04 3.3600276284030840e-04 0.0000000000000000e+00  5.1560740291237905e-05 1.3045847564879001e-04 0.0000000000000000e+00  -6.5710815115434962e-06 4.2524109350305478e-05 0.0000000000000000e+00  -1.6663711261689023e-04 3.6856658479998287e-04 0.0000000000000000e+00  -6.8820032332698186e-03 1.6725473195025778e-01 0.0000000000000000e+00  -6.1955247304668405e-06 1.7104304533233639e-04 0.0000000000000000e+00  -6.6743696054762111e-03 1.6721581646555334e-01 0.0000000000000000e+00  -4.3618359078988775e-04 8.4788853500651509e-04 0.0000000000000000e+00  -3.6253305524249095e-05 1.1153181963323372e-04 0.0000000000000000e+00  -7.0381236992275572e-03 1.6719107476701495e-01 0.0000000000000000e+00  -6.6735123254070498e-03 1.6729238871502808e-01 0.0000000000000000e+00  -5.2529667039636937e-05 7.1112357984173114e-05 0.0000000000000000e+00  -5.2605147932692021e-04 1.0162098787002776e-03 0.0000000000000000e+00  -6.7083612416345972e-03 1.6711662475631300e-01 0.0000000000000000e+00  2.2326331225981582e-05 3.6332535242267178e-05 0.0000000000000000e+00  -7.6453756803011340e-05 1.4880109671369611e-04 0.0000000000000000e+00  3.7262112192751241e-05 5.1276758528375052e-04 0.0000000000000000e+00  7.7218446367049718e-05 4.3750273581658771e-04 0.0000000000000000e+00  -6.2756989587166748e-05 1.3652805458455795e-04 0.0000000000000000e+00  2.8116663448888511e-04 5.3685362874610694e-04 0.0000000000000000e+00  -6.9292187101234080e-03 1.6710553898428188e-01 0.0000000000000000e+00  -7.4083857739888734e-05 2.1117571441223772e-04 0.0000000000000000e+00  4.1431299921553064e-05 7.7352747603765272e-05 0.0000000000000000e+00  3.8455353952135773e-05 2.0837842879681514e-04 0.0000000000000000e+00  9.3594736121053773e-05 2.9636291855408814e-04 0.0000000000000000e+00  -6.7201322121053647e-03 1.6727291532921285e-01 0.0000000000000000e+00  6.2408194831977553e-05 2.2247362774598583e-04 0.0000000000000000e+00  6.0391084148632349e-05 3.1871290168825555e-04 0.0000000000000000e+00  -8.0597381274029209e-05 3.6105650883359370e-04 0.0000000000000000e+00  -5.0469123609859030e-05 2.4164847415909584e-04 0.0000000000000000e+00  -7.0209630230871414e-03 1.6690572714791693e-01 0.0000000000000000e+00  4.6245746085861808e-04 9.2055398616947524e-04 0.0000000000000000e+00  4.6351279140999989e-04 1.0786974752572656e-03 0.0000000000000000e+00  -1.2626472851556275e-04 1.6142750739462649e-04 0.0000000000000000e+00  -6.9721122632126894e-03 1.6706526170521879e-01 0.0000000000000000e+00  8.4301100109480311e-06 1.3095593478950623e-04 0.0000000000000000e+00  1.1073754110034822e-04 1.8203085063785610e-04 0.0000000000000000e+00  -1.5006253950019474e-05 5.2367598530590713e-05 0.0000000000000000e+00  -6.9715282888458061e-03 1.6715594696067210e-01 0.0000000000000000e+00  -1.1929245563175341e-04 1.0681167306013017e-03 0.0000000000000000e+00  2.7229478488040472e-04 4.7184173597581211e-04 0.0000000000000000e+00  -6.9615270717260881e-03 1.6728998715898369e-01 0.0000000000000000e+00  8.4594612453503179e-05 1.5646729690498549e-04 0.0000000000000000e+00  -6.4223570700587297e-03 1.6659697695559458e-01 0.0000000000000000e+00  2.6387976574743688e-04 5.9563936923326931e-04 0.0000000000000000e+00  -8