<?xml version="1.0"?>
<VTKFile type="UnstructuredGrid"  version="0.1"  >
<UnstructuredGrid>
<Piece  NumberOfPoints="5173" NumberOfCells="9966">
<Points>
<DataArray  type="Float64"  NumberOfComponents="3"  format="ascii">-0.5 0.5 0  -0.5 -0.5 0  0.5 -0.5 0  0.5 0.5 0  0.1998669600420274 0.02125869712947308 0  0.201 0 0  0.1998669600420274 -0.02125869712947312 0  0.1964806779635733 -0.04227652472592507 0  0.1908795216936763 -0.06281534240438978 0  0.1831269545709826 -0.08264243715367564 0  0.1733108162787611 -0.1015331600677681 0  0.1615423275861927 -0.1192734717077003 0  0.1479548301726135 -0.1356623672539232 0  0.1327022758130076 -0.1505141539712278 0  0.1159574820428814 -0.1636605551816338 0  0.09791017406652992 -0.1749526169063923 0  0.07876483509466403 -0.1842623955740826 0  0.05873838946792427 -0.1914844076724011 0  0.03805774481742277 -0.1965368249185042 0  0.01695722111061653 -0.1993624014061501 0  -0.004324104287555032 -0.1999291222246905 0  -0.02554510545674447 -0.1982305662008014 0  -0.04646533997422303 -0.194285978652942 0  -0.06684777322360611 -0.1881400533342067 0  -0.08646146409177112 -0.1798624260342438 0  -0.1050841816239485 -0.1695468855779342 0  -0.1225049229892384 -0.1573103111605285 0  -0.138526304226997 -0.143291348059663 0  -0.1529667966859812 -0.127648836728964 0  -0.165662783816503 -0.1105600130722386 0  -0.1764704150113143 -0.0922185002898652 0  -0.1852672354904677 -0.07283211505056446 0  -0.1919535737629032 -0.05262051284550421 0  -0.1964536709442689 -0.03181269920381437 0  -0.1987165391353524 -0.0106444349684357 0  -0.1987165391353524 0.01064443496843575 0  -0.1964536709442689 0.03181269920381442 0  -0.1919535737629032 0.05262051284550433 0  -0.1852672354904677 0.07283211505056443 0  -0.1764704150113143 0.09221850028986515 0  -0.165662783816503 0.1105600130722387 0  -0.1529667966859812 0.1276488367289641 0  -0.1385263042269969 0.1432913480596631 0  -0.1225049229892383 0.1573103111605285 0  -0.1050841816239485 0.1695468855779342 0  -0.08646146409177108 0.1798624260342438 0  -0.06684777322360606 0.1881400533342067 0  -0.04646533997422297 0.194285978652942 0  -0.02554510545674437 0.1982305662008015 0  -0.004324104287554939 0.1999291222246905 0  0.01695722111061662 0.19936240140615 0  0.03805774481742286 0.1965368249185042 0  0.05873838946792424 0.1914844076724011 0  0.07876483509466414 0.1842623955740826 0  0.09791017406653006 0.1749526169063922 0  0.1159574820428814 0.1636605551816338 0  0.1327022758130078 0.1505141539712277 0  0.1479548301726135 0.1356623672539232 0  0.1615423275861927 0.1192734717077003 0  0.1733108162787612 0.101533160067768 0  0.1831269545709827 0.08264243715367564 0  0.1908795216936763 0.06281534240438975 0  0.1964806779635734 0.04227652472592486 0  0 -0.5 0  0 0.5 0  -0.5 0 0  0.5 0 0  0.25 -0.5 0  0.25 0.5 0  0.5 0.25 0  0.5 -0.25 0  -0.25 0.5 0  -0.25 -0.5 0  -0.5 -0.25 0  -0.5 0.25 0  0.2918258229480683 0.2918258229480682 0  0.2865867850624828 -0.2932931940421196 0  -0.2962949893701896 0.274449924397287 0  -0.2913160373738303 -0.2913160373738304 0  -0.125 0.3636995408959175 0  0.3637738468862107 -0.1261303957107176 0  0.125 0.3665964626830409 0  0.3640958654762797 0.1232161970438493 0  -0.3624000654276585 -0.1218337159209422 0  -0.125 -0.3668200952157802 0  0.125 -0.3712838880907947 0  -0.3600991828528437 0.1089843577122111 0  -0.5 0.375 0  0.5 -0.375 0  -0.375 -0.5 0  0.5 0.375 0  -0.375 0.5 0  0.375 -0.5 0  -0.5 -0.375 0  0.375 0.5 0  0.0006860903712339345 -0.3306266888645853 0  -0.000109901520948898 0.3746323380112415 0  -0.5 0.125 0  -0.125 -0.5 0  -0.5 -0.125 0  0.5 0.125 0  0.5 -0.125 0  0.125 -0.5 0  -0.125 0.5 0  0.125 0.5 0  0.3748576787807123 -0.001471205609738957 0  -0.3738828512115154 0.3738828512115154 0  -0.3827617049088436 -0.006210238480157219 0  -0.2429234745416257 0.3810213699917807 0  0.3769180353829246 -0.3769180353829246 0  -0.3777687524152424 -0.3777687524152424 0  0.3780704009792175 0.3780704009792175 0  -0.1776483227107271 -0.2618630460446135 0  -0.2604485542051718 -0.1787215021996984 0  -0.1798547561877991 0.2599748505350166 0  0.3864703130478905 -0.2380123189195306 0  0.1785319646943122 0.2625417448451246 0  0.261692611046212 0.1791168901036931 0  0.2607171500730768 -0.1799460669666111 0  0.1733970740599892 -0.2651674952354912 0  -0.3880520258539732 -0.2322407641539351 0  -0.2352016482221373 -0.388638232840279 0  0.2734696242623063 0.3964265996649794 0  0.3883795026617865 0.233417864889234 0  0.2738670858792859 -0.3976331321261044 0  -0.2491638954018168 0.1780101911767213 0  -0.3926686215746083 0.2165776265637375 0  0.07109213498061834 0.2869023807262104 0  -0.2934183534017453 0.03147305416145122 0  -0.08119265072200343 -0.2826195781877594 0  0.2836913223256923 -0.07709296110799269 0  -0.0558729689268372 0.2928347535333279 0  0.2830965643121598 0.07693076420704528 0  0.08122371629649494 -0.2825469282280794 0  -0.2767834230915197 -0.08819590430941976 0  0.1875 0.4332982313415205 0  -0.04303186331845871 -0.4151376431551652 0  0.190970733019215 -0.4322714131851434 0  0.06249999999999999 -0.4356419440453974 0  0.4328061849987423 0.06633847947711793 0  0.0664712649494027 0.4332982313415205 0  -0.06249999999999998 0.4373709104419552 0  0.4341377633941729 0.309372588857957 0  -0.4374372828954266 -0.3125 0  -0.3104572497507675 -0.4353019888851174 0  0.4374701104890421 -0.3125 0  -0.3116291712721947 0.4366347031852421 0  -0.4374901042687089 0.3125 0  -0.4363926600558238 0.4363926600558238 0  -0.5 0.0625 0  0.5 -0.0625 0  0.5 -0.4375 0  -0.4375 -0.5 0  0.5 0.4375 0  -0.1875 0.5 0  -0.4323246583268963 -0.07454303397230311 0  0.2154950463309389 -0.3375719358844427 0  0.206977802238796 0.342973363124546 0  0.4322596267199844 -0.1704803839098939 0  -0.1690769129391571 -0.4334100476078901 0  0.5 0.1875 0  -0.5 -0.1875 0  0.2967149326504868 -2.965984816150069e-05 0  -0.2579082457853068 0.1006999711688991 0  -0.4261732609354634 -0.1652001701086123 0  0.4197274728231854 -0.06828306080156128 0  0.4316260558094222 0.15625 0  -0.1765935890523967 0.4225213035878151 0  -0.326101012911042 0.1780020696215199 0  -0.3639018823524438 -0.3051829074366289 0  -0.4219359613016062 0.06132313683084987 0  -0.368871881750981 0.2861301036496543 0  -0.3031928482819811 -0.3630024307590357 0  0.3125 0.5 0  0.3355547846059301 -0.437829382399898 0  0.3620936304880762 0.3078025934392096 0  -0.4265460575686851 0.1475964618934338 0  0.4375 -0.5 0  -0.5 -0.4375 0  0.4375 0.5 0  0.3587983613906559 -0.3058906763528768 0  -0.1889171018677358 -0.3331988582480375 0  0.3319769361362775 -0.1908238194547704 0  0.3337713745363715 0.4328433800405805 0  -0.3319644446835826 -0.1870886352472088 0  0.3329253892881625 0.1878611701133833 0  0.4281511341447153 -0.4281511341447153 0  -0.232840147849867 0.3093215053326949 0  -0.40625 -0.4395608850352885 0  0.428794887401249 0.428794887401249 0  -0.3380841551254475 -0.05794700007688498 0  0.008054260670409629 -0.2648994211243904 0  0.1899220001124564 -0.1947534447033338 0  -0.3080416507322476 0.3708200057439822 0  -0.06307278823153059 -0.3455430469652901 0  0.06447087227249242 -0.3459780260685607 0  0.1914876772934198 0.1922953616824615 0  0.1267822167193652 -0.4357424153550361 0  -0.1100367963981227 0.2468729543145758 0  -0.1040301628609493 -0.4382371732506554 0  0.008496887133013969 0.3088587185741126 0  -0.1939711685411953 -0.1799889819170536 0  0.1169089524024441 0.2383640108781663 0  -0.5 0.1875 0  -0.06301873836730842 0.3744639870876723 0  0.0612272731888486 0.3516549422231338 0  0.0001842875295821901 0.4373159592812666 0  0.315570863666392 0.3499038328432952 0  0.43737589643705 0.003767781375474147 0  0.3480437072584214 -0.06190943679164183 0  0.3704548124556613 0.06095691071954262 0  0.3139725644615085 -0.3495769689516506 0  0.5 -0.1875 0  -0.5 -0.0625 0  -0.5 0.3125 0  -0.1875 -0.5 0  -0.3125 0.5 0  -0.3125 -0.5 0  -0.5 -0.3125 0  0.5 0.3125 0  -0.0625 0.5 0  0.5 0.0625 0  0.0625 -0.5 0  0.1875 -0.5 0  0.3125 -0.5 0  0.1875 0.5 0  0.0625 0.5 0  0.5 -0.3125 0  -0.4375 0.5 0  -0.5 0.4375 0  -0.0625 -0.5 0  -0.3740130545720807 0.4376162026208867 0  0.2356432480937504 -0.1203529309141897 0  0.2354253261260549 0.120280228505195 0  -0.4358389466402443 0.374436564627095 0  -0.1837098359759774 0.1929485386776155 0  -0.1210077767998366 -0.2331474219302516 0  -0.4388230181844467 -0.3736756227341544 0  0.2385916116983025 -0.2446215854929363 0  0.01618154697154811 -0.392205807603664 0  0.3033224724982568 0.1345019962362828 0  0.1269856324747013 0.4273682536406486 0  -0.2618767198442009 -0.02513308225372456 0  -0.1869024341550137 0.3523407916866587 0  0.4460792014197047 0.2150519456240759 0  -0.228067921023645 -0.1261420173261541 0  0.4375111104956734 0.3693541778847931 0  -0.2344434115929863 0.441225502334267 0  -0.1349409233725989 -0.3081519167298867 0  0.2361921270004774 0.236858231392783 0  -0.1134625589296566 0.3058057213872041 0  0.1364902237265291 -0.2193600350069504 0  -0.231009496195906 -0.2899916451544192 0  -0.4420301468408164 -0.0153626464053197 0  -0.3638407636123014 0.04989392276612995 0  -0.2281634567999949 -0.2293698735254731 0  -0.2404608239114909 0.2480193450766527 0  0.1548586079872366 0.3161601351946364 0  -0.2905808065687782 -0.2309892133488608 0  0.1583090638615736 -0.3223807786382032 0  0.3037640590628244 -0.1367963242859415 0  0.441474411355182 -0.3710236808063671 0  -0.1184457037417267 0.4214861255011078 0  0.3280783743867655 -0.2503846686276005 0  0.4421147536667354 -0.254616967737483 0  -0.4419160956032748 -0.2544205585064326 0  -0.3074463395544132 -0.1359279022829991 0  0.3366964226424555 0.256991018383815 0  -0.4508616135570574 0.21875 0  -0.3395120610056381 0.2372377549435862 0  -0.2261617732606898 -0.4465036260914809 0  0.2350726063974556 0.2936290504086719 0  0.007756726855498133 0.253726523067807 0  0.2816091581197124 -0.4531847002458751 0  0.002693579241951911 -0.4452927028974097 0  0.2614770372227774 0.3432624384800261 0  0.2905620892368345 0.2263682042801985 0  -0.2876366597373845 0.2178464403043631 0  0.2807413030307
[...]
<PointData  Vectors="f_44"> 
<DataArray  type="Float64"  Name="f_44"  NumberOfComponents="3" format="ascii">2.0029648635089738e-02 1.2244897959183676e-01 0.0000000000000000e+00  -1.8085609950353309e-02 3.6365229880689492e-02 0.0000000000000000e+00  1.7999104672471910e-02 3.6209156543902887e-02 0.0000000000000000e+00  -1.4634340179591455e-02 1.2244897959183673e-01 0.0000000000000000e+00  0.0000000000000000e+00 0.0000000000000000e+00 0.0000000000000000e+00  0.0000000000000000e+00 0.0000000000000000e+00 0.0000000000000000e+00  0.0000000000000000e+00 0.0000000000000000e+00 0.0000000000000000e+00  0.0000000000000000e+00 0.0000000000000000e+00 0.0000000000000000e+00  0.0000000000000000e+00 0.0000000000000000e+00 0.0000000000000000e+00  0.0000000000000000e+00 0.0000000000000000e+00 0.0000000000000000e+00  0.0000000000000000e+00 0.0000000000000000e+00 0.0000000000000000e+00  0.0000000000000000e+00 0.0000000000000000e+00 0.0000000000000000e+00  0.0000000000000000e+00 0.0000000000000000e+00 0.0000000000000000e+00  0.0000000000000000e+00 0.0000000000000000e+00 0.0000000000000000e+00  0.0000000000000000e+00 0.0000000000000000e+00 0.0000000000000000e+00  0.0000000000000000e+00 0.0000000000000000e+00 0.0000000000000000e+00  0.0000000000000000e+00 0.0000000000000000e+00 0.0000000000000000e+00  0.0000000000000000e+00 0.0000000000000000e+00 0.0000000000000000e+00  0.0000000000000000e+00 0.0000000000000000e+00 0.0000000000000000e+00  0.0000000000000000e+00 0.0000000000000000e+00 0.0000000000000000e+00  0.0000000000000000e+00 0.0000000000000000e+00 0.0000000000000000e+00  0.0000000000000000e+00 0.0000000000000000e+00 0.0000000000000000e+00  0.0000000000000000e+00 0.0000000000000000e+00 0.0000000000000000e+00  0.0000000000000000e+00 0.0000000000000000e+00 0.0000000000000000e+00  0.0000000000000000e+00 0.0000000000000000e+00 0.0000000000000000e+00  0.0000000000000000e+00 0.0000000000000000e+00 0.0000000000000000e+00  0.0000000000000000e+00 0.0000000000000000e+00 0.0000000000000000e+00  0.0000000000000000e+00 0.0000000000000000e+00 0.0000000000000000e+00  0.0000000000000000e+00 0.0000000000000000e+00 0.0000000000000000e+00  0.0000000000000000e+00 0.0000000000000000e+00 0.0000000000000000e+00  0.0000000000000000e+00 0.0000000000000000e+00 0.0000000000000000e+00  0.0000000000000000e+00 0.0000000000000000e+00 0.0000000000000000e+00  0.0000000000000000e+00 0.0000000000000000e+00 0.0000000000000000e+00  0.0000000000000000e+00 0.0000000000000000e+00 0.0000000000000000e+00  0.0000000000000000e+00 0.0000000000000000e+00 0.0000000000000000e+00  0.0000000000000000e+00 0.0000000000000000e+00 0.0000000000000000e+00  0.0000000000000000e+00 0.0000000000000000e+00 0.0000000000000000e+00  0.0000000000000000e+00 0.0000000000000000e+00 0.0000000000000000e+00  0.0000000000000000e+00 0.0000000000000000e+00 0.0000000000000000e+00  0.0000000000000000e+00 0.0000000000000000e+00 0.0000000000000000e+00  0.0000000000000000e+00 0.0000000000000000e+00 0.0000000000000000e+00  0.0000000000000000e+00 0.0000000000000000e+00 0.0000000000000000e+00  0.0000000000000000e+00 0.0000000000000000e+00 0.0000000000000000e+00  0.0000000000000000e+00 0.0000000000000000e+00 0.0000000000000000e+00  0.0000000000000000e+00 0.0000000000000000e+00 0.0000000000000000e+00  0.0000000000000000e+00 0.0000000000000000e+00 0.0000000000000000e+00  0.0000000000000000e+00 0.0000000000000000e+00 0.0000000000000000e+00  0.0000000000000000e+00 0.0000000000000000e+00 0.0000000000000000e+00  0.0000000000000000e+00 0.0000000000000000e+00 0.0000000000000000e+00  0.0000000000000000e+00 0.0000000000000000e+00 0.0000000000000000e+00  0.0000000000000000e+00 0.0000000000000000e+00 0.0000000000000000e+00  0.0000000000000000e+00 0.0000000000000000e+00 0.0000000000000000e+00  0.0000000000000000e+00 0.0000000000000000e+00 0.0000000000000000e+00  0.0000000000000000e+00 0.0000000000000000e+00 0.0000000000000000e+00  0.0000000000000000e+00 0.0000000000000000e+00 0.0000000000000000e+00  0.0000000000000000e+00 0.0000000000000000e+00 0.0000000000000000e+00  0.0000000000000000e+00 0.0000000000000000e+00 0.0000000000000000e+00  0.0000000000000000e+00 0.0000000000000000e+00 0.0000000000000000e+00  0.0000000000000000e+00 0.0000000000000000e+00 0.0000000000000000e+00  0.0000000000000000e+00 0.0000000000000000e+00 0.0000000000000000e+00  0.0000000000000000e+00 0.0000000000000000e+00 0.0000000000000000e+00  0.0000000000000000e+00 0.0000000000000000e+00 0.0000000000000000e+00  0.0000000000000000e+00 0.0000000000000000e+00 0.0000000000000000e+00  -9.8174569720423994e-05 6.6678801496034851e-03 0.0000000000000000e+00  2.1565250071453766e-03 1.2244897959183673e-01 0.0000000000000000e+00  7.3262137249170793e-03 5.8111164269226294e-02 0.0000000000000000e+00  -7.7109186634476629e-03 5.8209674817055988e-02 0.0000000000000000e+00  1.5491278893663887e-02 1.8240928345849918e-02 0.0000000000000000e+00  -1.5079038391873233e-03 1.2244897959183673e-01 0.0000000000000000e+00  -2.9740279713487739e-02 8.2122225574434965e-02 0.0000000000000000e+00  6.4803056101716775e-03 3.8695028192881717e-02 0.0000000000000000e+00  6.0522605200170661e-03 1.2244897959183676e-01 0.0000000000000000e+00  -1.5628441741240444e-02 1.8391381584581416e-02 0.0000000000000000e+00  -6.5406825997781038e-03 3.8809068254346227e-02 0.0000000000000000e+00  3.2152834907321105e-02 8.3788915643042958e-02 0.0000000000000000e+00  -1.7097866125954313e-02 9.8882671389954643e-02 0.0000000000000000e+00  7.9350985999318939e-03 2.0224759520211178e-02 0.0000000000000000e+00  2.6278757098843548e-02 8.7197941348631805e-02 0.0000000000000000e+00  -8.0229932613938258e-03 2.0911404907010975e-02 0.0000000000000000e+00  6.6508806602786127e-03 1.2139233850521473e-01 0.0000000000000000e+00  3.9163222008498019e-03 3.2538424758356964e-02 0.0000000000000000e+00  -2.3230847611680492e-03 1.2143799405949249e-01 0.0000000000000000e+00  -1.5580326644083198e-02 5.5430591326309328e-02 0.0000000000000000e+00  -3.8366666086975189e-03 3.2699661866822882e-02 0.0000000000000000e+00  -5.1220218075823743e-03 7.6445824257107961e-03 0.0000000000000000e+00  5.0908068377755016e-03 7.6333645806202855e-03 0.0000000000000000e+00  1.2888403756638332e-02 5.1848624058842573e-02 0.0000000000000000e+00  2.5596474005465629e-02 9.8245078217889872e-02 0.0000000000000000e+00  1.1226862137005888e-02 3.6269349105337120e-02 0.0000000000000000e+00  -1.8029035980959340e-02 2.8264494776894897e-02 0.0000000000000000e+00  -2.0388339163315849e-02 9.7725584016949099e-02 0.0000000000000000e+00  1.2542808801393973e-02 1.2244897959183673e-01 0.0000000000000000e+00  1.7931122343566686e-02 2.8112158291086806e-02 0.0000000000000000e+00  -1.1298463274481311e-02 3.6422383563860780e-02 0.0000000000000000e+00  -7.3762607394839549e-03 1.2244897959183676e-01 0.0000000000000000e+00  -3.0174970678033407e-05 3.1728236453692788e-03 0.0000000000000000e+00  2.0614322331674660e-03 1.2231969924425135e-01 0.0000000000000000e+00  2.1530988071306982e-02 7.2943410218465912e-02 0.0000000000000000e+00  -9.2191630478025317e-03 9.9643709845971835e-03 0.0000000000000000e+00  -1.4317559961255456e-03 4.5870919961075750e-02 0.0000000000000000e+00  -2.2009540935221283e-02 7.2415779970040950e-02 0.0000000000000000e+00  1.3165041454284432e-03 4.5883523814449739e-02 0.0000000000000000e+00  9.0574481775407088e-03 9.8739963043865987e-03 0.0000000000000000e+00  3.5973881212040550e-03 1.2244897959183676e-01 0.0000000000000000e+00  7.7342658023518370e-04 1.2244897959183675e-01 0.0000000000000000e+00  -3.2912323081451173e-03 4.2238882357806838e-02 0.0000000000000000e+00  1.8290755632737694e-02 1.0223897317203703e-01 0.0000000000000000e+00  2.9476605694147887e-03 4.3103324183703370e-02 0.0000000000000000e+00  9.4391926686200524e-03 1.1479068676288223e-01 0.0000000000000000e+00  1.1226092340766774e-02 2.8307565448529245e-02 0.0000000000000000e+00  -1.1337827930512308e-02 2.8528006160375749e-02 0.0000000000000000e+00  -1.2984449894326573e-02 1.0367389284424489e-01 0.0000000000000000e+00  -5.0665353089860221e-03 9.1028806554004655e-03 0.0000000000000000e+00  -5.4160226086517726e-03 1.7075556552079933e-02 0.0000000000000000e+00  1.8411124779700486e-02 1.3938481115521558e-02 0.0000000000000000e+00  7.1167282349616813e-03 3.1250705145911981e-02 0.0000000000000000e+00  -1.2708745810047261e-02 1.1532261479965179e-01 0.0000000000000000e+00  -1.6861687797865201e-02 3.2272589588984088e-02 0.0000000000000000e+00  5.3881904133821074e-03 1.6845713952921271e-02 0.0000000000000000e+00  4.9186676490979254e-03 8.6537789146493346e-03 0.0000000000000000e+00  -6.9976901663684112e-03 3.1707038448317022e-02 0.0000000000000000e+00  -9.3746554644033378e-03 1.6086721341266711e-02 0.0000000000000000e+00  -5.1577950556471307e-03 1.1355869626355683e-01 0.0000000000000000e+00  -2.7543576485056866e-02 7.7815105858059452e-02 0.0000000000000000e+00  1.0553502012384287e-02 1.9374603962084749e-02 0.0000000000000000e+00  1.4513295344202674e-02 2.8150184359211180e-02 0.0000000000000000e+00  2.8233250584783726e-02 7.4460249374492832e-02 0.0000000000000000e+00  -3.2093272909947284e-03 1.1953624128802594e-01 0.0000000000000000e+00  2.5941915250804661e-03 2.8252084300949103e-02 0.0000000000000000e+00  -2.3990559466380503e-03 3.5187481705346519e-03 0.0000000000000000e+00  2.7275808653538835e-03 2.1055992543179913e-02 0.0000000000000000e+00  3.8077541052465762e-03 1.1696089211244941e-01 0.0000000000000000e+00  -5.3743608451930682e-03 2.8917500826105960e-02 0.0000000000000000e+00  2.3066585620604672e-03 3.4404982954880110e-03 0.0000000000000000e+00  -3.1435176650131983e-03 1.9861167394649458e-02 0.0000000000000000e+00  -9.9782038049098264e-04 1.2052234897376088e-01 0.0000000000000000e+00  -2.2374095242465638e-03 5.3984197084088470e-03 0.0000000000000000e+00  9.3489944850581562e-03 1.2899290639404318e-02 0.0000000000000000e+00  3.3613354801511294e-03 6.1946719011322674e-03 0.0000000000000000e+00  -1.2350658852109262e-02 5.8061461571528535e-02 0.0000000000000000e+00  9.3164790924756674e-04 1.2248016922650656e-01 0.0000000000000000e+00  3.2330059439930766e-03 1.2249218069796677e-01 0.0000000000000000e+00  -2.3500543353555722e-02 9.0460179780823977e-02 0.0000000000000000e+00  -9.0816297213127933e-03 3.3800635045613113e-02 0.0000000000000000e+00  -1.3076446833185349e-02 2.2906697326897190e-02 0.0000000000000000e+00  9.0225824240323452e-03 3.3655175098379675e-02 0.0000000000000000e+00  9.9552463101626413e-03 1.1487803134640698e-01 0.0000000000000000e+00  2.7892314355679435e-02 9.0845225750151207e-02 0.0000000000000000e+00  1.7929395156824984e-02 1.1137580997077054e-01 0.0000000000000000e+00  1.3840192805090657e-02 6.5592375866221811e-02 0.0000000000000000e+00  -2.5151531275881159e-03 5.1469155958768775e-02 0.0000000000000000e+00  1.4346262106268359e-02 3.6161957592930213e-02 0.0000000000000000e+00  -1.8130196707423264e-02 3.2574270506269418e-02 0.0000000000000000e+00  -1.6157024882329306e-02 1.0958779925608575e-01 0.0000000000000000e+00  4.4603010280161830e-03 1.2244897959183672e-01 0.0000000000000000e+00  -2.6771739774721608e-04 4.4236152229091004e-02 0.0000000000000000e+00  7.4010700799864541e-03 1.3666243032129637e-02 0.0000000000000000e+00  -6.6399446128444931e-03 1.1679894353750933e-01 0.0000000000000000e+00  4.6199750765106270e-03 3.8091950208323344e-02 0.0000000000000000e+00  -8.6295658404561548e-03 1.1501365897257731e-02 0.0000000000000000e+00  -2.8247526525662370e-02 7.7708745099254253e-02 0.0000000000000000e+00  -4.2315351847017155e-03 4.1683416768123135e-02 0.0000000000000000e+00  -9.0784712613680416e-04 2.6698202598890369e-02 0.0000000000000000e+00  5.8085299546035123e-03 2.4072977058325278e-02 0.0000000000000000e+00  -4.5731329398562654e-03 3.7913136509386970e-02 0.0000000000000000e+00  2.8334307857705999e-05 4.3209641390880862e-02 0.0000000000000000e+00  -2.3344056037346225e-02 6.9402654061513594e-02 0.0000000000000000e+00  5.5472017782930852e-03 1.2062810341704072e-01 0.0000000000000000e+00  2.0185781306747658e-02 5.5341711961138372e-02 0.0000000000000000e+00  -8.9165022564462078e-03 2.7996784395361594e-02 0.0000000000000000e+00  1.0724420401302585e-02 5.5905765617433864e-02 0.0000000000000000e+00  2.7554552741094314e-02 8.6006773661026450e-02 0.0000000000000000e+00  -1.0021136523294111e-02 2.2062506540709161e-02 0.0000000000000000e+00  -4.0152165831820680e-03 1.2244897959183673e-01 0.0000000000000000e+00  1.3537821211168642e-02 2.4851703462192815e-02 0.0000000000000000e+00  -1.9685345274357363e-02 9.2211637387809547e-02 0.0000000000000000e+00  2.1621638840757473e-02 6.7549324456915444e-02 0.0000000000000000e+00  1.8040869796727459e-02 3.2417104585189517e-02 0.0000000000000000e+00  -1.4430600039561200e-02 3.6323243869940680e-02 0.0000000000000000e+00  -1.0983866361085351e-02 1.2244897959183675e-01 0.0000000000000000e+00  8.8593180224022620e-03 2.7346297583372651e-02 0.0000000000000000e+00  -6.6553749171102232e-03 1.1502495455676292e-02 0.0000000000000000e+00  6.0925900034909187e-03 2.6327769490395121e-02 0.0000000000000000e+00  -6.5345197134794074e-03 1.1391142479985197e-01 0.0000000000000000e+00  -6.0413356665564803e-03 2.6608061721579913e-02 0.0000000000000000e+00  -2.3337154464325875e-02 6.0981773418449070e-02 0.0000000000000000e+00  1.3791962752292643e-02 3.1863829253495207e-02 0.0000000000000000e+00  1.6108850614263353e-02 1.1197758389862496e-01 0.0000000000000000e+00  -1.4399070421627778e-02 3.0488812438956563e-02 0.0000000000000000e+00  -1.2503143477706084e-02 1.1039462868762695e-01 0.0000000000000000e+00  -1.3931013298414036e-03 3.2053191115411724e-02 0.0000000000000000e+00  1.5517939288953254e-04 1.5207644792096702e-03 0.0000000000000000e+00  4.0106170229860299e-03 8.0635319537290789e-03 0.0000000000000000e+00  1.3708736646316952e-02 1.0660669105183099e-01 0.0000000000000000e+00  -2.4635920370880875e-03 4.4793958224048740e-03 0.0000000000000000e+00  2.4069232359976078e-03 4.4710587418628576e-03 0.0000000000000000e+00  -1.1492690374067444e-02 1.0128919197048957e-02 0.0000000000000000e+00  6.6572149999796892e-03 8.8319979184547509e-03 0.0000000000000000e+00  7.3410743704295615e-03 3.2279800326846918e-03 0.0000000000000000e+00  -5.7409017696073766e-03 7.8446104817471371e-03 0.0000000000000000e+00  1.3137895046396145e-03 1.2108933185324629e-01 0.0000000000000000e+00  -3.8723015627693202e-03 8.2136499591421424e-03 0.0000000000000000e+00  -5.3380142830137282e-03 2.9253024433806485e-03 0.0000000000000000e+00  2.8700224952326988e-02 7.8996039064313434e-02 0.0000000000000000e+00  4.2070001085078110e-03 1.2220291852148975e-01 0.0000000000000000e+00  -5.2573646656105938e-04 1.2199803662099805e-01 0.0000000000000000e+00  2.1317822122136881e-03 1.2258491639504930e-01 0.0000000000000000e+00  -1.1174467933336403e-02 1.0401759154322360e-01 0.0000000000000000e+00  -5.9597539019560697e-03 5.1780513236073203e-02 0.0000000000000000e+00  1.3043011467986573e-03 3.3352018915259442e-02 0.0000000000000000e+00  -8.6850224324336416e-03 4.7910916841616732e-02 0.0000000000000000e+00  9.6883019344980552e-03 2.2892370406853001e-02 0.0000000000000000e+00  4.1778195695278374e-03 4.1614746436516935e-02 0.0000000000000000e+00  2.3069421455241077e-03 5.1394421536922717e-02 0.0000000000000000e+00  3.0311365965688307e-02 8.9513336518098202e-02 0.0000000000000000e+00  -1.2898164060437773e-02 1.3735308230127976e-02 0.0000000000000000e+00  8.8296169500548805e-03 1.2244897959183675e-01 0.0000000000000000e+00  -1.7289024311115262e-02 2.3415717653125594e-02 0.0000000000000000e+00  -8.7572881028650136e-03 3.7130592163082177e-02 0.0000000000000000e+00  -2.6017634464506036e-02 8.8289568120397788e-02 0.0000000000000000e+00  2.8970773108693481e-03 1.2244897959183673e-01 0.0000000000000000e+00  -1.4412158726980378e-02 6.5540755337713849e-02 0.0000000000000000e+00  4.6525217804710070e-03 7.4723314875428147e-03 0.0000000000000000e+00  1.2744929727785145e-02 1.3594581651350768e-02 0.0000000000000000e+00  1.7183751105927795e-02 2.3255938344726335e-02 0.0000000000000000e+00  -4.2070212210844141e-05 1.2244897959183676e-01 0.0000000000000000e+00  1.4315036124485673e-03 1.2244897959183675e-01 0.0000000000000000e+00  8.6925366749614503e-03 3.6987932451880950e-02 0.0000000000000000e+00  1.6353960525253165e-02 1.2244897959183676e-01 0.0000000000000000e+00  2.1545366246229852e-02 1.0969506361944117e-01 0.0000000000000000e+00  -4.8501555900965282e-03 7.5308109666444838e-03 0.0000000000000000e+00  1.3918961621393345e-02 1.1281055406459269e-01 0.0000000000000000e+00  3.4946944276671816e-03 1.2126887370670768e-02 0.0000000000000000e+00  -6.4711798262808021e-03 1.7810513591730259e-02 0.0000000000000000e+00  2.2296309825355225e-02 1.0079219395644100e-01 0.0000000000000000e+00  1.0731343659219893e-02 9.7739550454164978e-03 0.0000000000000000e+00  -2.7260043695985950e-03 3.8527849718675649e-03 0.0000000000000000e+00  -1.1335876023177182e-02 3.3036078040002297e-02 0.0000000000000000e+00  6.2296566915314606e-03 1.4762296681512115e-02 0.0000000000000000e+00  6.7879472404854392e-04 4.5583404588092095e-03 0.0000000000000000e+00  -1.2770988691513361e-02 4.1688652692106108e-02 0.0000000000000000e+00  -1.6152797101525571e-04 1.2190141722340006e-01 0.0000000000000000e+00  -8.3885456440606213e-04 1.7778261620414040e-02 0.0000000000000000e+00  9.5672308599544318e-03 1.1862824876564186e-01 0.0000000000000000e+00  -2.8289676933531474e-02 7.7740060145644302e-02 0.0000000000000000e+00  -3.5205156001285941e-03 1.1299302449677379e-02 0.0000000000000000e+00  -1.7589590649172430e-02 1.0007976095906251e-01 0.0000000000000000e+00  6.3617918177589876e-03 1.1898741631029132e-01 0.0000000000000000e+00  -4.5152757835413499e-03 7.0113964406238868e-03 0.0000000000000000e+00  -2.5448491374950966e-02 3.2677758294956075e-02 0.0000000000000000e+00  8.6960000211372800e-03 1.2061964545720039e-01 0.0000000000000000e+00  2.8179358993590023e-03 4.1819080833948091e-03 0.0000000000000000e+00  -6.9396235855321876e-03 1.4708151817058632e-02 0.0000000000000000e+00  4.1126278944927392e-03 5.0438478378702391e-02 0.0000000000000000e+00  6.8764352902956670e-03 4.5225130152329457e-02 0.0000000000000000e+00  -5.8048612596375013e-03 1.3563538674487457e-02 0.0000000000000000e+00  2.7536459488466756e-02 3.6110480415229788e-02 0.0000000000000000e+00  -6.7720660032719602e-03 1.1977801719024937e-01 0.0000000000000000e+00  -6.8199277406067217e-03 2.0969744459467837e-02 0.0000000000000000e+00  5.4088922406121953e-03 8.7925948038989152e-03 0.0000000000000000e+00  4.6604410856413547e-03 2.3452143246366790e-02 0.0000000000000000e+00  1.1150700743401559e-02 3.3085897262221234e-02 0.0000000000000000e+00  4.5017907449457235e-03 1.2199240034695144e-01 0.0000000000000000e+00  7.4248004214395842e-03 2.4917366122875914e-02 0.0000000000000000e+00  7.2079350457126910e-03 3.5428730114816662e-02 0.0000000000000000e+00  -7.2521087078902969e-03 3.5546247326382958e-02 0.0000000000000000e+00  -4.6820338922384849e-03 2.4275005200791743e-02 0.0000000000000000e+00  -2.5373283486048316e-02 8.2410555559473089e-02 0.0000000000000000e+00  2.9781689993168020e-02 7.8802548454285984e-02 0.0000000000000000e+00  2.8850612350016600e-02 7.2938487295220122e-02 0.0000000000000000e+00  -1.1404247369176139e-02 1.5924794986710455e-02 0.0000000000000000e+00  -1.3540321876938191e-02 1.1129465452694666e-01 0.0000000000000000e+00  3.4391348469785721e-04 4.7780794159483050e-04 0.0000000000000000e+00  1.3308689584731451e-02 2.0406112861567564e-02 0.0000000000000000e+00  7.4055473804921331e-05 5.5357045862063489e-03 0.0000000000000000e+00  -8.7298077199959283e-03 1.1043634317164924e-01 0.0000000000000000e+00  -2.6591091014845063e-02 6.4094862941451045e-02 0.0000000000000000e+00  2.4749099353363852e-02 5.1611006854852530e-02 0.0000000000000000e+00  -3.1952631109989325e-03 1.1816513732572333e-01 0.0000000000000000e+00  6.2610196669653237e-03 1.3932084896098736e-02 0.0000000000000000e+00  3.0060396978013035e-02 8.3078363244373871e-02 0.0000000000000000e+00  2.1597838275600051e-02 6.4042574466627783e-02 0.0000000000000000e+00  -7.6472264311536944e-03 2.6202368201087917e-02