<?xml version="1.0"?>
<VTKFile type="UnstructuredGrid"  version="0.1"  >
<UnstructuredGrid>
<Piece  NumberOfPoints="5173" NumberOfCells="9966">
<Points>
<DataArray  type="Float64"  NumberOfComponents="3"  format="ascii">-0.5 0.5 0  -0.5 -0.5 0  0.5 -0.5 0  0.5 0.5 0  0.1998669600420274 0.02125869712947308 0  0.201 0 0  0.1998669600420274 -0.02125869712947312 0  0.1964806779635733 -0.04227652472592507 0  0.1908795216936763 -0.06281534240438978 0  0.1831269545709826 -0.08264243715367564 0  0.1733108162787611 -0.1015331600677681 0  0.1615423275861927 -0.1192734717077003 0  0.1479548301726135 -0.1356623672539232 0  0.1327022758130076 -0.1505141539712278 0  0.1159574820428814 -0.1636605551816338 0  0.09791017406652992 -0.1749526169063923 0  0.07876483509466403 -0.1842623955740826 0  0.05873838946792427 -0.1914844076724011 0  0.03805774481742277 -0.1965368249185042 0  0.01695722111061653 -0.1993624014061501 0  -0.004324104287555032 -0.1999291222246905 0  -0.02554510545674447 -0.1982305662008014 0  -0.04646533997422303 -0.194285978652942 0  -0.06684777322360611 -0.1881400533342067 0  -0.08646146409177112 -0.1798624260342438 0  -0.1050841816239485 -0.1695468855779342 0  -0.1225049229892384 -0.1573103111605285 0  -0.138526304226997 -0.143291348059663 0  -0.1529667966859812 -0.127648836728964 0  -0.165662783816503 -0.1105600130722386 0  -0.1764704150113143 -0.0922185002898652 0  -0.1852672354904677 -0.07283211505056446 0  -0.1919535737629032 -0.05262051284550421 0  -0.1964536709442689 -0.03181269920381437 0  -0.1987165391353524 -0.0106444349684357 0  -0.1987165391353524 0.01064443496843575 0  -0.1964536709442689 0.03181269920381442 0  -0.1919535737629032 0.05262051284550433 0  -0.1852672354904677 0.07283211505056443 0  -0.1764704150113143 0.09221850028986515 0  -0.165662783816503 0.1105600130722387 0  -0.1529667966859812 0.1276488367289641 0  -0.1385263042269969 0.1432913480596631 0  -0.1225049229892383 0.1573103111605285 0  -0.1050841816239485 0.1695468855779342 0  -0.08646146409177108 0.1798624260342438 0  -0.06684777322360606 0.1881400533342067 0  -0.04646533997422297 0.194285978652942 0  -0.02554510545674437 0.1982305662008015 0  -0.004324104287554939 0.1999291222246905 0  0.01695722111061662 0.19936240140615 0  0.03805774481742286 0.1965368249185042 0  0.05873838946792424 0.1914844076724011 0  0.07876483509466414 0.1842623955740826 0  0.09791017406653006 0.1749526169063922 0  0.1159574820428814 0.1636605551816338 0  0.1327022758130078 0.1505141539712277 0  0.1479548301726135 0.1356623672539232 0  0.1615423275861927 0.1192734717077003 0  0.1733108162787612 0.101533160067768 0  0.1831269545709827 0.08264243715367564 0  0.1908795216936763 0.06281534240438975 0  0.1964806779635734 0.04227652472592486 0  0 -0.5 0  0 0.5 0  -0.5 0 0  0.5 0 0  0.25 -0.5 0  0.25 0.5 0  0.5 0.25 0  0.5 -0.25 0  -0.25 0.5 0  -0.25 -0.5 0  -0.5 -0.25 0  -0.5 0.25 0  0.2918258229480683 0.2918258229480682 0  0.2865867850624828 -0.2932931940421196 0  -0.2962949893701896 0.274449924397287 0  -0.2913160373738303 -0.2913160373738304 0  -0.125 0.3636995408959175 0  0.3637738468862107 -0.1261303957107176 0  0.125 0.3665964626830409 0  0.3640958654762797 0.1232161970438493 0  -0.3624000654276585 -0.1218337159209422 0  -0.125 -0.3668200952157802 0  0.125 -0.3712838880907947 0  -0.3600991828528437 0.1089843577122111 0  -0.5 0.375 0  0.5 -0.375 0  -0.375 -0.5 0  0.5 0.375 0  -0.375 0.5 0  0.375 -0.5 0  -0.5 -0.375 0  0.375 0.5 0  0.0006860903712339345 -0.3306266888645853 0  -0.000109901520948898 0.3746323380112415 0  -0.5 0.125 0  -0.125 -0.5 0  -0.5 -0.125 0  0.5 0.125 0  0.5 -0.125 0  0.125 -0.5 0  -0.125 0.5 0  0.125 0.5 0  0.3748576787807123 -0.001471205609738957 0  -0.3738828512115154 0.3738828512115154 0  -0.3827617049088436 -0.006210238480157219 0  -0.2429234745416257 0.3810213699917807 0  0.3769180353829246 -0.3769180353829246 0  -0.3777687524152424 -0.3777687524152424 0  0.3780704009792175 0.3780704009792175 0  -0.1776483227107271 -0.2618630460446135 0  -0.2604485542051718 -0.1787215021996984 0  -0.1798547561877991 0.2599748505350166 0  0.3864703130478905 -0.2380123189195306 0  0.1785319646943122 0.2625417448451246 0  0.261692611046212 0.1791168901036931 0  0.2607171500730768 -0.1799460669666111 0  0.1733970740599892 -0.2651674952354912 0  -0.3880520258539732 -0.2322407641539351 0  -0.2352016482221373 -0.388638232840279 0  0.2734696242623063 0.3964265996649794 0  0.3883795026617865 0.233417864889234 0  0.2738670858792859 -0.3976331321261044 0  -0.2491638954018168 0.1780101911767213 0  -0.3926686215746083 0.2165776265637375 0  0.07109213498061834 0.2869023807262104 0  -0.2934183534017453 0.03147305416145122 0  -0.08119265072200343 -0.2826195781877594 0  0.2836913223256923 -0.07709296110799269 0  -0.0558729689268372 0.2928347535333279 0  0.2830965643121598 0.07693076420704528 0  0.08122371629649494 -0.2825469282280794 0  -0.2767834230915197 -0.08819590430941976 0  0.1875 0.4332982313415205 0  -0.04303186331845871 -0.4151376431551652 0  0.190970733019215 -0.4322714131851434 0  0.06249999999999999 -0.4356419440453974 0  0.4328061849987423 0.06633847947711793 0  0.0664712649494027 0.4332982313415205 0  -0.06249999999999998 0.4373709104419552 0  0.4341377633941729 0.309372588857957 0  -0.4374372828954266 -0.3125 0  -0.3104572497507675 -0.4353019888851174 0  0.4374701104890421 -0.3125 0  -0.3116291712721947 0.4366347031852421 0  -0.4374901042687089 0.3125 0  -0.4363926600558238 0.4363926600558238 0  -0.5 0.0625 0  0.5 -0.0625 0  0.5 -0.4375 0  -0.4375 -0.5 0  0.5 0.4375 0  -0.1875 0.5 0  -0.4323246583268963 -0.07454303397230311 0  0.2154950463309389 -0.3375719358844427 0  0.206977802238796 0.342973363124546 0  0.4322596267199844 -0.1704803839098939 0  -0.1690769129391571 -0.4334100476078901 0  0.5 0.1875 0  -0.5 -0.1875 0  0.2967149326504868 -2.965984816150069e-05 0  -0.2579082457853068 0.1006999711688991 0  -0.4261732609354634 -0.1652001701086123 0  0.4197274728231854 -0.06828306080156128 0  0.4316260558094222 0.15625 0  -0.1765935890523967 0.4225213035878151 0  -0.326101012911042 0.1780020696215199 0  -0.3639018823524438 -0.3051829074366289 0  -0.4219359613016062 0.06132313683084987 0  -0.368871881750981 0.2861301036496543 0  -0.3031928482819811 -0.3630024307590357 0  0.3125 0.5 0  0.3355547846059301 -0.437829382399898 0  0.3620936304880762 0.3078025934392096 0  -0.4265460575686851 0.1475964618934338 0  0.4375 -0.5 0  -0.5 -0.4375 0  0.4375 0.5 0  0.3587983613906559 -0.3058906763528768 0  -0.1889171018677358 -0.3331988582480375 0  0.3319769361362775 -0.1908238194547704 0  0.3337713745363715 0.4328433800405805 0  -0.3319644446835826 -0.1870886352472088 0  0.3329253892881625 0.1878611701133833 0  0.4281511341447153 -0.4281511341447153 0  -0.232840147849867 0.3093215053326949 0  -0.40625 -0.4395608850352885 0  0.428794887401249 0.428794887401249 0  -0.3380841551254475 -0.05794700007688498 0  0.008054260670409629 -0.2648994211243904 0  0.1899220001124564 -0.1947534447033338 0  -0.3080416507322476 0.3708200057439822 0  -0.06307278823153059 -0.3455430469652901 0  0.06447087227249242 -0.3459780260685607 0  0.1914876772934198 0.1922953616824615 0  0.1267822167193652 -0.4357424153550361 0  -0.1100367963981227 0.2468729543145758 0  -0.1040301628609493 -0.4382371732506554 0  0.008496887133013969 0.3088587185741126 0  -0.1939711685411953 -0.1799889819170536 0  0.1169089524024441 0.2383640108781663 0  -0.5 0.1875 0  -0.06301873836730842 0.3744639870876723 0  0.0612272731888486 0.3516549422231338 0  0.0001842875295821901 0.4373159592812666 0  0.315570863666392 0.3499038328432952 0  0.43737589643705 0.003767781375474147 0  0.3480437072584214 -0.06190943679164183 0  0.3704548124556613 0.06095691071954262 0  0.3139725644615085 -0.3495769689516506 0  0.5 -0.1875 0  -0.5 -0.0625 0  -0.5 0.3125 0  -0.1875 -0.5 0  -0.3125 0.5 0  -0.3125 -0.5 0  -0.5 -0.3125 0  0.5 0.3125 0  -0.0625 0.5 0  0.5 0.0625 0  0.0625 -0.5 0  0.1875 -0.5 0  0.3125 -0.5 0  0.1875 0.5 0  0.0625 0.5 0  0.5 -0.3125 0  -0.4375 0.5 0  -0.5 0.4375 0  -0.0625 -0.5 0  -0.3740130545720807 0.4376162026208867 0  0.2356432480937504 -0.1203529309141897 0  0.2354253261260549 0.120280228505195 0  -0.4358389466402443 0.374436564627095 0  -0.1837098359759774 0.1929485386776155 0  -0.1210077767998366 -0.2331474219302516 0  -0.4388230181844467 -0.3736756227341544 0  0.2385916116983025 -0.2446215854929363 0  0.01618154697154811 -0.392205807603664 0  0.3033224724982568 0.1345019962362828 0  0.1269856324747013 0.4273682536406486 0  -0.2618767198442009 -0.02513308225372456 0  -0.1869024341550137 0.3523407916866587 0  0.4460792014197047 0.2150519456240759 0  -0.228067921023645 -0.1261420173261541 0  0.4375111104956734 0.3693541778847931 0  -0.2344434115929863 0.441225502334267 0  -0.1349409233725989 -0.3081519167298867 0  0.2361921270004774 0.236858231392783 0  -0.1134625589296566 0.3058057213872041 0  0.1364902237265291 -0.2193600350069504 0  -0.231009496195906 -0.2899916451544192 0  -0.4420301468408164 -0.0153626464053197 0  -0.3638407636123014 0.04989392276612995 0  -0.2281634567999949 -0.2293698735254731 0  -0.2404608239114909 0.2480193450766527 0  0.1548586079872366 0.3161601351946364 0  -0.2905808065687782 -0.2309892133488608 0  0.1583090638615736 -0.3223807786382032 0  0.3037640590628244 -0.1367963242859415 0  0.441474411355182 -0.3710236808063671 0  -0.1184457037417267 0.4214861255011078 0  0.3280783743867655 -0.2503846686276005 0  0.4421147536667354 -0.254616967737483 0  -0.4419160956032748 -0.2544205585064326 0  -0.3074463395544132 -0.1359279022829991 0  0.3366964226424555 0.256991018383815 0  -0.4508616135570574 0.21875 0  -0.3395120610056381 0.2372377549435862 0  -0.2261617732606898 -0.4465036260914809 0  0.2350726063974556 0.2936290504086719 0  0.007756726855498133 0.253726523067807 0  0.2816091581197124 -0.4531847002458751 0  0.002693579241951911 -0.4452927028974097 0  0.2614770372227774 0.3432624384800261 0  0.2905620892368345 0.2263682042801985 0  -0.2876366597373845 0.2178464403043631 0  0.2807413030307
[...]
<PointData  Vectors="f_44"> 
<DataArray  type="Float64"  Name="f_44"  NumberOfComponents="3" format="ascii">-6.0597013562027225e-03 1.5510204081632656e-01 0.0000000000000000e+00  -2.3974635476678978e-04 4.5743808210897566e-04 0.0000000000000000e+00  1.8702572330929994e-04 3.9555713676261056e-04 0.0000000000000000e+00  -6.6418589270899192e-03 1.5510204081632656e-01 0.0000000000000000e+00  0.0000000000000000e+00 0.0000000000000000e+00 0.0000000000000000e+00  0.0000000000000000e+00 0.0000000000000000e+00 0.0000000000000000e+00  0.0000000000000000e+00 0.0000000000000000e+00 0.0000000000000000e+00  0.0000000000000000e+00 0.0000000000000000e+00 0.0000000000000000e+00  0.0000000000000000e+00 0.0000000000000000e+00 0.0000000000000000e+00  0.0000000000000000e+00 0.0000000000000000e+00 0.0000000000000000e+00  0.0000000000000000e+00 0.0000000000000000e+00 0.0000000000000000e+00  0.0000000000000000e+00 0.0000000000000000e+00 0.0000000000000000e+00  0.0000000000000000e+00 0.0000000000000000e+00 0.0000000000000000e+00  0.0000000000000000e+00 0.0000000000000000e+00 0.0000000000000000e+00  0.0000000000000000e+00 0.0000000000000000e+00 0.0000000000000000e+00  0.0000000000000000e+00 0.0000000000000000e+00 0.0000000000000000e+00  0.0000000000000000e+00 0.0000000000000000e+00 0.0000000000000000e+00  0.0000000000000000e+00 0.0000000000000000e+00 0.0000000000000000e+00  0.0000000000000000e+00 0.0000000000000000e+00 0.0000000000000000e+00  0.0000000000000000e+00 0.0000000000000000e+00 0.0000000000000000e+00  0.0000000000000000e+00 0.0000000000000000e+00 0.0000000000000000e+00  0.0000000000000000e+00 0.0000000000000000e+00 0.0000000000000000e+00  0.0000000000000000e+00 0.0000000000000000e+00 0.0000000000000000e+00  0.0000000000000000e+00 0.0000000000000000e+00 0.0000000000000000e+00  0.0000000000000000e+00 0.0000000000000000e+00 0.0000000000000000e+00  0.0000000000000000e+00 0.0000000000000000e+00 0.0000000000000000e+00  0.0000000000000000e+00 0.0000000000000000e+00 0.0000000000000000e+00  0.0000000000000000e+00 0.0000000000000000e+00 0.0000000000000000e+00  0.0000000000000000e+00 0.0000000000000000e+00 0.0000000000000000e+00  0.0000000000000000e+00 0.0000000000000000e+00 0.0000000000000000e+00  0.0000000000000000e+00 0.0000000000000000e+00 0.0000000000000000e+00  0.0000000000000000e+00 0.0000000000000000e+00 0.0000000000000000e+00  0.0000000000000000e+00 0.0000000000000000e+00 0.0000000000000000e+00  0.0000000000000000e+00 0.0000000000000000e+00 0.0000000000000000e+00  0.0000000000000000e+00 0.0000000000000000e+00 0.0000000000000000e+00  0.0000000000000000e+00 0.0000000000000000e+00 0.0000000000000000e+00  0.0000000000000000e+00 0.0000000000000000e+00 0.0000000000000000e+00  0.0000000000000000e+00 0.0000000000000000e+00 0.0000000000000000e+00  0.0000000000000000e+00 0.0000000000000000e+00 0.0000000000000000e+00  0.0000000000000000e+00 0.0000000000000000e+00 0.0000000000000000e+00  0.0000000000000000e+00 0.0000000000000000e+00 0.0000000000000000e+00  0.0000000000000000e+00 0.0000000000000000e+00 0.0000000000000000e+00  0.0000000000000000e+00 0.0000000000000000e+00 0.0000000000000000e+00  0.0000000000000000e+00 0.0000000000000000e+00 0.0000000000000000e+00  0.0000000000000000e+00 0.0000000000000000e+00 0.0000000000000000e+00  0.0000000000000000e+00 0.0000000000000000e+00 0.0000000000000000e+00  0.0000000000000000e+00 0.0000000000000000e+00 0.0000000000000000e+00  0.0000000000000000e+00 0.0000000000000000e+00 0.0000000000000000e+00  0.0000000000000000e+00 0.0000000000000000e+00 0.0000000000000000e+00  0.0000000000000000e+00 0.0000000000000000e+00 0.0000000000000000e+00  0.0000000000000000e+00 0.0000000000000000e+00 0.0000000000000000e+00  0.0000000000000000e+00 0.0000000000000000e+00 0.0000000000000000e+00  0.0000000000000000e+00 0.0000000000000000e+00 0.0000000000000000e+00  0.0000000000000000e+00 0.0000000000000000e+00 0.0000000000000000e+00  0.0000000000000000e+00 0.0000000000000000e+00 0.0000000000000000e+00  0.0000000000000000e+00 0.0000000000000000e+00 0.0000000000000000e+00  0.0000000000000000e+00 0.0000000000000000e+00 0.0000000000000000e+00  0.0000000000000000e+00 0.0000000000000000e+00 0.0000000000000000e+00  0.0000000000000000e+00 0.0000000000000000e+00 0.0000000000000000e+00  0.0000000000000000e+00 0.0000000000000000e+00 0.0000000000000000e+00  0.0000000000000000e+00 0.0000000000000000e+00 0.0000000000000000e+00  0.0000000000000000e+00 0.0000000000000000e+00 0.0000000000000000e+00  0.0000000000000000e+00 0.0000000000000000e+00 0.0000000000000000e+00  -2.5026089706809337e-05 7.7814737143047663e-05 0.0000000000000000e+00  -6.3352337947041410e-03 1.5510204081632656e-01 0.0000000000000000e+00  8.8315701336841356e-05 7.4069524304617486e-04 0.0000000000000000e+00  -9.9347482885821833e-05 6.6274790827573142e-04 0.0000000000000000e+00  1.5738569639769164e-04 1.9901508849331004e-04 0.0000000000000000e+00  -6.5204949730575988e-03 1.5510204081632656e-01 0.0000000000000000e+00  -7.3697428210075617e-03 1.5387026705410578e-01 0.0000000000000000e+00  6.5217417759925417e-05 4.2536554116468601e-04 0.0000000000000000e+00  -6.1889281954581633e-03 1.5510204081632656e-01 0.0000000000000000e+00  -2.0994434891983581e-04 2.3000120356938343e-04 0.0000000000000000e+00  -9.1025287722395324e-05 4.8750446550370626e-04 0.0000000000000000e+00  5.8215009894440413e-04 1.4716700839485092e-01 0.0000000000000000e+00  -6.5757618261635172e-03 1.5477317976161753e-01 0.0000000000000000e+00  8.0122697115348645e-05 2.1988677620162517e-04 0.0000000000000000e+00  -6.0513826036586484e-03 1.5468734009531995e-01 0.0000000000000000e+00  -1.0895249259059345e-04 2.6111341660183787e-04 0.0000000000000000e+00  -6.2325180891712254e-03 1.5494850338816121e-01 0.0000000000000000e+00  3.8679753329991188e-05 3.5677389532272357e-04 0.0000000000000000e+00  -6.4617740784324220e-03 1.5489542234221934e-01 0.0000000000000000e+00  -2.3240696604793609e-04 5.7218966326213539e-04 0.0000000000000000e+00  -5.3785316794995124e-05 4.0422709578605731e-04 0.0000000000000000e+00  -7.6498912134897681e-05 9.5406036745592803e-05 0.0000000000000000e+00  4.3550115868898570e-05 8.2526921727141419e-05 0.0000000000000000e+00  1.8924603584313747e-04 6.0012060720875679e-04 0.0000000000000000e+00  -6.0032947342215709e-03 1.5480279437068103e-01 0.0000000000000000e+00  1.1449515013597869e-04 3.9635520837036793e-04 0.0000000000000000e+00  -2.3905916711983356e-04 3.5444306652102862e-04 0.0000000000000000e+00  -6.6600268443617735e-03 1.5488691706406654e-01 0.0000000000000000e+00  -6.1312123602316601e-03 1.5510204081632653e-01 0.0000000000000000e+00  1.8614394880061443e-04 3.0745758275834366e-04 0.0000000000000000e+00  -1.5279723221283840e-04 4.5812561587755445e-04 0.0000000000000000e+00  -6.5848854808268293e-03 1.5510204081632656e-01 0.0000000000000000e+00  -1.2985884273131012e-05 3.6793153627898636e-05 0.0000000000000000e+00  -6.3440546146798825e-03 1.5490589086426265e-01 0.0000000000000000e+00  3.0789938703585734e-04 9.8079146292339055e-04 0.0000000000000000e+00  -1.3305036142704081e-04 1.2329713918686120e-04 0.0000000000000000e+00  -2.5627648054460071e-05 5.7665335490212017e-04 0.0000000000000000e+00  -3.0598822281927278e-04 8.7085609024372865e-04 0.0000000000000000e+00  8.9129261054643807e-06 5.1147070074429926e-04 0.0000000000000000e+00  8.2224748180915298e-05 1.0846950818534708e-04 0.0000000000000000e+00  -6.2494511787672853e-03 1.5510204081632656e-01 0.0000000000000000e+00  -6.4355498480422029e-03 1.5510204081632656e-01 0.0000000000000000e+00  -5.1671551231430815e-05 4.6040301698450084e-04 0.0000000000000000e+00  -6.0789908934328028e-03 1.5490568872835234e-01 0.0000000000000000e+00  3.5230025628143345e-05 5.2711533084241172e-04 0.0000000000000000e+00  -6.1661017018641972e-03 1.5496205699393506e-01 0.0000000000000000e+00  1.1437018968375443e-04 3.0954714998387165e-04 0.0000000000000000e+00  -1.5327154568574376e-04 3.5767075884341772e-04 0.0000000000000000e+00  -6.6083690605920203e-03 1.5493187072107026e-01 0.0000000000000000e+00  -6.9557322522938964e-05 1.1375365710813973e-04 0.0000000000000000e+00  -7.1438001825470049e-05 2.1051912991303500e-04 0.0000000000000000e+00  1.6430001159529876e-04 7.3347594569960514e-04 0.0000000000000000e+00  7.3138875485815615e-05 3.4289970704167344e-04 0.0000000000000000e+00  -5.8307061332821611e-03 1.5401702712714585e-01 0.0000000000000000e+00  -2.4277357419042809e-04 4.1079912670885781e-04 0.0000000000000000e+00  5.5134144443640457e-05 1.8205152838858210e-04 0.0000000000000000e+00  4.7548872632048746e-05 9.2732461405930301e-05 0.0000000000000000e+00  -9.5863601193800675e-05 3.9615382997940324e-04 0.0000000000000000e+00  -1.2938570534132005e-04 2.0142649534988380e-04 0.0000000000000000e+00  -6.5474501581224229e-03 1.5494959269906067e-01 0.0000000000000000e+00  -6.5303041695205215e-03 1.5412943837855639e-01 0.0000000000000000e+00  1.0537512890143992e-04 2.1085513326708552e-04 0.0000000000000000e+00  2.1914920460277718e-04 3.6145102250587552e-04 0.0000000000000000e+00  4.4813201089825822e-04 9.5974253983184196e-04 0.0000000000000000e+00  -6.5900589050560477e-03 1.5417522537967596e-01 0.0000000000000000e+00  4.3317596840923172e-05 3.3248811097496845e-04 0.0000000000000000e+00  -3.7497992116511256e-05 4.3912481063879164e-05 0.0000000000000000e+00  2.4475778506421582e-05 2.2741510551488363e-04 0.0000000000000000e+00  -7.2809581122530867e-03 1.5226310996429140e-01 0.0000000000000000e+00  -9.7214108603842141e-05 3.1998769565565638e-04 0.0000000000000000e+00  1.7717596490763483e-05 3.6861834348377800e-05 0.0000000000000000e+00  -4.0150823355040424e-05 2.4032216313196080e-04 0.0000000000000000e+00  -6.4861341099036783e-03 1.5500073851268975e-01 0.0000000000000000e+00  -4.5188131683847612e-05 6.5045633363675401e-05 0.0000000000000000e+00  8.9473262826328479e-05 1.4005166845259328e-04 0.0000000000000000e+00  1.9390980911800163e-05 6.8921490031290312e-05 0.0000000000000000e+00  -1.6367870482908849e-04 6.4395608372813120e-04 0.0000000000000000e+00  -6.3948797439596292e-03 1.5499760149841807e-01 0.0000000000000000e+00  -6.2867735161697353e-03 1.5501944883004404e-01 0.0000000000000000e+00  -6.6762839381163874e-03 1.5483855008503386e-01 0.0000000000000000e+00  -1.2377936871575928e-04 4.2406438275050169e-04 0.0000000000000000e+00  -1.7645178242980960e-04 2.8697196470310040e-04 0.0000000000000000e+00  9.2000404565738698e-05 3.6900222296593267e-04 0.0000000000000000e+00  -6.1503845357006280e-03 1.5501741234744551e-01 0.0000000000000000e+00  -5.9472311834440298e-03 1.5475302925635412e-01 0.0000000000000000e+00  -6.0861255010745408e-03 1.5498170762487792e-01 0.0000000000000000e+00  1.7986005698682439e-04 8.5166437743795971e-04 0.0000000000000000e+00  -3.5839559413513302e-05 5.7909311333649604e-04 0.0000000000000000e+00  1.4763465641108776e-04 3.9501393970380614e-04 0.0000000000000000e+00  -2.4029150822934758e-04 4.0910380750452767e-04 0.0000000000000000e+00  -6.6459320691573407e-03 1.5499724999940126e-01 0.0000000000000000e+00  -6.2176981722404882e-03 1.5510204081632656e-01 0.0000000000000000e+00  -1.0611284778692438e-05 5.5295760779513982e-04 0.0000000000000000e+00  7.1949470496949884e-05 1.4776413356603653e-04 0.0000000000000000e+00  -6.5215924299156219e-03 1.5486378097888961e-01 0.0000000000000000e+00  4.6596959187210676e-05 4.2086937970323162e-04 0.0000000000000000e+00  -1.2258332502658226e-04 1.4365806408418722e-04 0.0000000000000000e+00  -5.0832513084019199e-04 1.0557620759010856e-03 0.0000000000000000e+00  -6.1306089874264293e-05 5.2340580539283782e-04 0.0000000000000000e+00  -2.5437422429700920e-05 2.8909144350919248e-04 0.0000000000000000e+00  1.0102304932043678e-04 2.8741382586218071e-04 0.0000000000000000e+00  -6.5174793315275067e-05 4.7405623613886540e-04 0.0000000000000000e+00  -6.2107330658844071e-06 4.7908877250294520e-04 0.0000000000000000e+00  -3.4628763379937428e-04 7.5695204660238349e-04 0.0000000000000000e+00  -6.2155313562970672e-03 1.5501788956184442e-01 0.0000000000000000e+00  3.0263897712684443e-04 6.0685061711774951e-04 0.0000000000000000e+00  -1.2119926334779587e-04 3.5037900103100932e-04 0.0000000000000000e+00  1.3891695797651411e-04 6.9167679280421270e-04 0.0000000000000000e+00  -5.9834062944963606e-03 1.5471091317298286e-01 0.0000000000000000e+00  -1.3639160940583195e-04 2.7623055649949300e-04 0.0000000000000000e+00  -6.5552822940304709e-03 1.5510204081632653e-01 0.0000000000000000e+00  1.3809539387771359e-04 2.7142970489874826e-04 0.0000000000000000e+00  -6.6284008604606190e-03 1.5482914516743251e-01 0.0000000000000000e+00  3.2034310114065933e-04 8.3075984569328952e-04 0.0000000000000000e+00  1.8750505148723603e-04 3.5450502921663104e-04 0.0000000000000000e+00  -1.9307058430945631e-04 4.5692383318358005e-04 0.0000000000000000e+00  -6.6122323545999978e-03 1.5510204081632659e-01 0.0000000000000000e+00  9.0326013830198206e-05 2.9904032765097735e-04 0.0000000000000000e+00  -9.3265705395873856e-05 1.4400286831621923e-04 0.0000000000000000e+00  6.2683939684917602e-05 2.8743501094521387e-04 0.0000000000000000e+00  -6.5723256065546975e-03 1.5500644698508612e-01 0.0000000000000000e+00  -8.1741101760824799e-05 3.2998566499313416e-04 0.0000000000000000e+00  -3.4302791357905245e-04 6.4128046457097743e-04 0.0000000000000000e+00  1.4165376081477963e-04 3.4851540343467383e-04 0.0000000000000000e+00  -6.1300880770160738e-03 1.5485136911027053e-01 0.0000000000000000e+00  -1.9274924884282458e-04 3.8261554551332608e-04 0.0000000000000000e+00  -6.6144020081885715e-03 1.5499647759830162e-01 0.0000000000000000e+00  -1.9698727057970781e-05 3.9010640986336773e-04 0.0000000000000000e+00  -5.1335895403324046e-06 1.7369896095387477e-05 0.0000000000000000e+00  4.0398419249815815e-05 8.6272217547485685e-05 0.0000000000000000e+00  -6.1201240176908906e-03 1.5492783655754383e-01 0.0000000000000000e+00  -4.3038188904924015e-05 5.4989195105323964e-05 0.0000000000000000e+00  1.4225043634421307e-05 4.8963968246253904e-05 0.0000000000000000e+00  -1.6280742959239904e-04 2.3852040127037084e-04 0.0000000000000000e+00  5.7899926654415496e-05 9.6224942479482931e-05 0.0000000000000000e+00  1.2514240986921855e-04 1.5887711754449126e-04 0.0000000000000000e+00  -8.8277297926016331e-05 9.7025305707843168e-05 0.0000000000000000e+00  -6.3765605150821539e-03 1.5461979423714636e-01 0.0000000000000000e+00  -5.0610496381547003e-05 1.0152128801754804e-04 0.0000000000000000e+00  -1.1141521194543599e-04 2.2945724738144846e-04 0.0000000000000000e+00  5.0901805544905537e-04 1.1489591183919789e-03 0.0000000000000000e+00  -6.2825992191002213e-03 1.5493020803025040e-01 0.0000000000000000e+00  -6.4140698810415103e-03 1.5485019263367761e-01 0.0000000000000000e+00  -6.3372166148764879e-03 1.5500869987375970e-01 0.0000000000000000e+00  -6.5842126761976221e-03 1.5488458015522766e-01 0.0000000000000000e+00  -7.9144949058142282e-05 5.7782821112568287e-04 0.0000000000000000e+00  6.6414469615471393e-06 3.6384052130124483e-04 0.0000000000000000e+00  -1.2823743371370561e-04 5.1252057105935424e-04 0.0000000000000000e+00  9.7783160535704666e-05 2.4958810461814642e-04 0.0000000000000000e+00  4.0790316505457105e-05 4.6025461981202652e-04 0.0000000000000000e+00  2.2234439212287553e-05 6.4884206402833955e-04 0.0000000000000000e+00  -5.8873030412902533e-03 1.5460973528166425e-01 0.0000000000000000e+00  -1.7706701433743615e-04 1.7129581474067469e-04 0.0000000000000000e+00  -6.1604519218652351e-03 1.5510204081632653e-01 0.0000000000000000e+00  -2.3005812523101799e-04 2.9324909067086316e-04 0.0000000000000000e+00  -1.1983130967809851e-04 4.6679346231170651e-04 0.0000000000000000e+00  -6.7086122797345576e-03 1.5474693823979740e-01 0.0000000000000000e+00  -6.2882984638681300e-03 1.5510204081632656e-01 0.0000000000000000e+00  -1.8675125233777879e-04 7.6038547245649703e-04 0.0000000000000000e+00  3.0731909113279504e-05 8.3866359670662976e-05 0.0000000000000000e+00  1.2527301732572250e-04 1.4835177001163623e-04 0.0000000000000000e+00  1.7727540341684080e-04 2.5408194846774046e-04 0.0000000000000000e+00  -6.4804337694405233e-03 1.5510204081632656e-01 0.0000000000000000e+00  -6.3861757473077990e-03 1.5510204081632656e-01 0.0000000000000000e+00  8.8099415264654123e-05 4.0498247867480218e-04 0.0000000000000000e+00  -6.0990388840420342e-03 1.5510204081632653e-01 0.0000000000000000e+00  -6.0466516198506241e-03 1.5495532365507816e-01 0.0000000000000000e+00  -8.1125224104704337e-05 9.1273224991837056e-05 0.0000000000000000e+00  -6.1190689834823555e-03 1.5500511690407617e-01 0.0000000000000000e+00  3.5279157555173578e-05 1.3012787565499346e-04 0.0000000000000000e+00  -1.1065774962448417e-04 2.3320476241452730e-04 0.0000000000000000e+00  -6.0424122927650410e-03 1.5486924812447739e-01 0.0000000000000000e+00  1.5362390913000154e-04 1.8861293875035637e-04 0.0000000000000000e+00  -3.8179369104924977e-05 4.8404913708904923e-05 0.0000000000000000e+00  -1.5320149176570533e-04 4.1477776514406417e-04 0.0000000000000000e+00  6.2770454461661727e-05 1.5942983524782701e-04 0.0000000000000000e+00  -9.2127215952850075e-06 5.2210114403392843e-05 0.0000000000000000e+00  -2.0404582011565437e-04 4.4891882480259631e-04 0.0000000000000000e+00  -6.4445262232097180e-03 1.5498957079980263e-01 0.0000000000000000e+00  -7.6415548620670848e-06 2.1089803189405857e-04 0.0000000000000000e+00  -6.1905865995096811e-03 1.5494031987354775e-01 0.0000000000000000e+00  -5.4088376543613161e-04 1.0404181318159763e-03 0.0000000000000000e+00  -4.4802016685366971e-05 1.3759699899956707e-04 0.0000000000000000e+00  -6.6347919350767679e-03 1.5491074296349078e-01 0.0000000000000000e+00  -6.1900297736550538e-03 1.5503459588562787e-01 0.0000000000000000e+00  -6.5356614510760408e-05 8.7804832347207137e-05 0.0000000000000000e+00  -6.1996071920631746e-04 1.2247701956423405e-03 0.0000000000000000e+00  -6.2319505733838014e-03 1.5481911325826012e-01 0.0000000000000000e+00  2.7100669246177188e-05 4.4373799444166685e-05 0.0000000000000000e+00  -9.4797065407528359e-05 1.8368481208993931e-04 0.0000000000000000e+00  4.5796931158841358e-05 6.3253705748579896e-04 0.0000000000000000e+00  9.5306108310511329e-05 5.3936405685367180e-04 0.0000000000000000e+00  -7.7726277311302997e-05 1.6851493686228868e-04 0.0000000000000000e+00  3.4276309745095350e-04 6.6242280467891364e-04 0.0000000000000000e+00  -6.5028916970852274e-03 1.5480670658150461e-01 0.0000000000000000e+00  -9.1734187940907587e-05 2.6061567324687829e-04 0.0000000000000000e+00  5.0051030011947597e-05 9.4519529818442137e-05 0.0000000000000000e+00  4.7085777227842274e-05 2.5469170492907332e-04 0.0000000000000000e+00  1.1383668881469663e-04 3.6213343103088091e-04 0.0000000000000000e+00  -6.2474246220482659e-03 1.5501151762411208e-01 0.0000000000000000e+00  7.6059797409515681e-05 2.7193854552855088e-04 0.0000000000000000e+00  7.3589449464771110e-05 3.8955347830041599e-04 0.0000000000000000e+00  -9.9869166656486736e-05 4.4563149096904948e-04 0.0000000000000000e+00  -6.2425539600876215e-05 2.9811984393835687e-04 0.0000000000000000e+00  -6.6144207056771809e-03 1.5456728769710451e-01 0.0000000000000000e+00  5.7343154781002575e-04 1.1327714092868473e-03 0.0000000000000000e+00  5.7851498298112588e-04 1.3378098055569665e-03 0.0000000000000000e+00  -1.5664826052234530e-04 1.9925717721821612e-04 0.0000000000000000e+00  -6.5550155615969113e-03 1.5475932534119990e-01 0.0000000000000000e+00  1.0944057442789800e-05 1.5906249914688064e-04 0.0000000000000000e+00  1.3454026638699666e-04 2.2248981766681208e-04 0.0000000000000000e+00  -1.9821818897192314e-05 6.4350996737639669e-05 0.0000000000000000e+00  -6.5540245798503677e-03 1.5486970681607001e-01 0.0000000000000000e+00  -1.6569941653340963e-04 1.2657837163479726e-03 0.0000000000000000e+00  3.3606715256108362e-04 5.8238346040252775e-04 0.0000000000000000e+00  -6.5412899563327626e-03 1.5503266741254002e-01 0.0000000000000000e+00  1.0441338938654240e-04 1.9300801360390348e-04 0.0000000000000000e+00  -5.8818578389755469e-03 1.5419522003343100e-01 0.0000000000000000e+00  3.2636613752750222e-04 7.3361705230437502e-04 0.0000000000000000e+00  -1.