<?xml version="1.0"?>
<VTKFile type="UnstructuredGrid"  version="0.1"  >
<UnstructuredGrid>
<Piece  NumberOfPoints="5173" NumberOfCells="9966">
<Points>
<DataArray  type="Float64"  NumberOfComponents="3"  format="ascii">-0.5 0.5 0  -0.5 -0.5 0  0.5 -0.5 0  0.5 0.5 0  0.1998669600420274 0.02125869712947308 0  0.201 0 0  0.1998669600420274 -0.02125869712947312 0  0.1964806779635733 -0.04227652472592507 0  0.1908795216936763 -0.06281534240438978 0  0.1831269545709826 -0.08264243715367564 0  0.1733108162787611 -0.1015331600677681 0  0.1615423275861927 -0.1192734717077003 0  0.1479548301726135 -0.1356623672539232 0  0.1327022758130076 -0.1505141539712278 0  0.1159574820428814 -0.1636605551816338 0  0.09791017406652992 -0.1749526169063923 0  0.07876483509466403 -0.1842623955740826 0  0.05873838946792427 -0.1914844076724011 0  0.03805774481742277 -0.1965368249185042 0  0.01695722111061653 -0.1993624014061501 0  -0.004324104287555032 -0.1999291222246905 0  -0.02554510545674447 -0.1982305662008014 0  -0.04646533997422303 -0.194285978652942 0  -0.06684777322360611 -0.1881400533342067 0  -0.08646146409177112 -0.1798624260342438 0  -0.1050841816239485 -0.1695468855779342 0  -0.1225049229892384 -0.1573103111605285 0  -0.138526304226997 -0.143291348059663 0  -0.1529667966859812 -0.127648836728964 0  -0.165662783816503 -0.1105600130722386 0  -0.1764704150113143 -0.0922185002898652 0  -0.1852672354904677 -0.07283211505056446 0  -0.1919535737629032 -0.05262051284550421 0  -0.1964536709442689 -0.03181269920381437 0  -0.1987165391353524 -0.0106444349684357 0  -0.1987165391353524 0.01064443496843575 0  -0.1964536709442689 0.03181269920381442 0  -0.1919535737629032 0.05262051284550433 0  -0.1852672354904677 0.07283211505056443 0  -0.1764704150113143 0.09221850028986515 0  -0.165662783816503 0.1105600130722387 0  -0.1529667966859812 0.1276488367289641 0  -0.1385263042269969 0.1432913480596631 0  -0.1225049229892383 0.1573103111605285 0  -0.1050841816239485 0.1695468855779342 0  -0.08646146409177108 0.1798624260342438 0  -0.06684777322360606 0.1881400533342067 0  -0.04646533997422297 0.194285978652942 0  -0.02554510545674437 0.1982305662008015 0  -0.004324104287554939 0.1999291222246905 0  0.01695722111061662 0.19936240140615 0  0.03805774481742286 0.1965368249185042 0  0.05873838946792424 0.1914844076724011 0  0.07876483509466414 0.1842623955740826 0  0.09791017406653006 0.1749526169063922 0  0.1159574820428814 0.1636605551816338 0  0.1327022758130078 0.1505141539712277 0  0.1479548301726135 0.1356623672539232 0  0.1615423275861927 0.1192734717077003 0  0.1733108162787612 0.101533160067768 0  0.1831269545709827 0.08264243715367564 0  0.1908795216936763 0.06281534240438975 0  0.1964806779635734 0.04227652472592486 0  0 -0.5 0  0 0.5 0  -0.5 0 0  0.5 0 0  0.25 -0.5 0  0.25 0.5 0  0.5 0.25 0  0.5 -0.25 0  -0.25 0.5 0  -0.25 -0.5 0  -0.5 -0.25 0  -0.5 0.25 0  0.2918258229480683 0.2918258229480682 0  0.2865867850624828 -0.2932931940421196 0  -0.2962949893701896 0.274449924397287 0  -0.2913160373738303 -0.2913160373738304 0  -0.125 0.3636995408959175 0  0.3637738468862107 -0.1261303957107176 0  0.125 0.3665964626830409 0  0.3640958654762797 0.1232161970438493 0  -0.3624000654276585 -0.1218337159209422 0  -0.125 -0.3668200952157802 0  0.125 -0.3712838880907947 0  -0.3600991828528437 0.1089843577122111 0  -0.5 0.375 0  0.5 -0.375 0  -0.375 -0.5 0  0.5 0.375 0  -0.375 0.5 0  0.375 -0.5 0  -0.5 -0.375 0  0.375 0.5 0  0.0006860903712339345 -0.3306266888645853 0  -0.000109901520948898 0.3746323380112415 0  -0.5 0.125 0  -0.125 -0.5 0  -0.5 -0.125 0  0.5 0.125 0  0.5 -0.125 0  0.125 -0.5 0  -0.125 0.5 0  0.125 0.5 0  0.3748576787807123 -0.001471205609738957 0  -0.3738828512115154 0.3738828512115154 0  -0.3827617049088436 -0.006210238480157219 0  -0.2429234745416257 0.3810213699917807 0  0.3769180353829246 -0.3769180353829246 0  -0.3777687524152424 -0.3777687524152424 0  0.3780704009792175 0.3780704009792175 0  -0.1776483227107271 -0.2618630460446135 0  -0.2604485542051718 -0.1787215021996984 0  -0.1798547561877991 0.2599748505350166 0  0.3864703130478905 -0.2380123189195306 0  0.1785319646943122 0.2625417448451246 0  0.261692611046212 0.1791168901036931 0  0.2607171500730768 -0.1799460669666111 0  0.1733970740599892 -0.2651674952354912 0  -0.3880520258539732 -0.2322407641539351 0  -0.2352016482221373 -0.388638232840279 0  0.2734696242623063 0.3964265996649794 0  0.3883795026617865 0.233417864889234 0  0.2738670858792859 -0.3976331321261044 0  -0.2491638954018168 0.1780101911767213 0  -0.3926686215746083 0.2165776265637375 0  0.07109213498061834 0.2869023807262104 0  -0.2934183534017453 0.03147305416145122 0  -0.08119265072200343 -0.2826195781877594 0  0.2836913223256923 -0.07709296110799269 0  -0.0558729689268372 0.2928347535333279 0  0.2830965643121598 0.07693076420704528 0  0.08122371629649494 -0.2825469282280794 0  -0.2767834230915197 -0.08819590430941976 0  0.1875 0.4332982313415205 0  -0.04303186331845871 -0.4151376431551652 0  0.190970733019215 -0.4322714131851434 0  0.06249999999999999 -0.4356419440453974 0  0.4328061849987423 0.06633847947711793 0  0.0664712649494027 0.4332982313415205 0  -0.06249999999999998 0.4373709104419552 0  0.4341377633941729 0.309372588857957 0  -0.4374372828954266 -0.3125 0  -0.3104572497507675 -0.4353019888851174 0  0.4374701104890421 -0.3125 0  -0.3116291712721947 0.4366347031852421 0  -0.4374901042687089 0.3125 0  -0.4363926600558238 0.4363926600558238 0  -0.5 0.0625 0  0.5 -0.0625 0  0.5 -0.4375 0  -0.4375 -0.5 0  0.5 0.4375 0  -0.1875 0.5 0  -0.4323246583268963 -0.07454303397230311 0  0.2154950463309389 -0.3375719358844427 0  0.206977802238796 0.342973363124546 0  0.4322596267199844 -0.1704803839098939 0  -0.1690769129391571 -0.4334100476078901 0  0.5 0.1875 0  -0.5 -0.1875 0  0.2967149326504868 -2.965984816150069e-05 0  -0.2579082457853068 0.1006999711688991 0  -0.4261732609354634 -0.1652001701086123 0  0.4197274728231854 -0.06828306080156128 0  0.4316260558094222 0.15625 0  -0.1765935890523967 0.4225213035878151 0  -0.326101012911042 0.1780020696215199 0  -0.3639018823524438 -0.3051829074366289 0  -0.4219359613016062 0.06132313683084987 0  -0.368871881750981 0.2861301036496543 0  -0.3031928482819811 -0.3630024307590357 0  0.3125 0.5 0  0.3355547846059301 -0.437829382399898 0  0.3620936304880762 0.3078025934392096 0  -0.4265460575686851 0.1475964618934338 0  0.4375 -0.5 0  -0.5 -0.4375 0  0.4375 0.5 0  0.3587983613906559 -0.3058906763528768 0  -0.1889171018677358 -0.3331988582480375 0  0.3319769361362775 -0.1908238194547704 0  0.3337713745363715 0.4328433800405805 0  -0.3319644446835826 -0.1870886352472088 0  0.3329253892881625 0.1878611701133833 0  0.4281511341447153 -0.4281511341447153 0  -0.232840147849867 0.3093215053326949 0  -0.40625 -0.4395608850352885 0  0.428794887401249 0.428794887401249 0  -0.3380841551254475 -0.05794700007688498 0  0.008054260670409629 -0.2648994211243904 0  0.1899220001124564 -0.1947534447033338 0  -0.3080416507322476 0.3708200057439822 0  -0.06307278823153059 -0.3455430469652901 0  0.06447087227249242 -0.3459780260685607 0  0.1914876772934198 0.1922953616824615 0  0.1267822167193652 -0.4357424153550361 0  -0.1100367963981227 0.2468729543145758 0  -0.1040301628609493 -0.4382371732506554 0  0.008496887133013969 0.3088587185741126 0  -0.1939711685411953 -0.1799889819170536 0  0.1169089524024441 0.2383640108781663 0  -0.5 0.1875 0  -0.06301873836730842 0.3744639870876723 0  0.0612272731888486 0.3516549422231338 0  0.0001842875295821901 0.4373159592812666 0  0.315570863666392 0.3499038328432952 0  0.43737589643705 0.003767781375474147 0  0.3480437072584214 -0.06190943679164183 0  0.3704548124556613 0.06095691071954262 0  0.3139725644615085 -0.3495769689516506 0  0.5 -0.1875 0  -0.5 -0.0625 0  -0.5 0.3125 0  -0.1875 -0.5 0  -0.3125 0.5 0  -0.3125 -0.5 0  -0.5 -0.3125 0  0.5 0.3125 0  -0.0625 0.5 0  0.5 0.0625 0  0.0625 -0.5 0  0.1875 -0.5 0  0.3125 -0.5 0  0.1875 0.5 0  0.0625 0.5 0  0.5 -0.3125 0  -0.4375 0.5 0  -0.5 0.4375 0  -0.0625 -0.5 0  -0.3740130545720807 0.4376162026208867 0  0.2356432480937504 -0.1203529309141897 0  0.2354253261260549 0.120280228505195 0  -0.4358389466402443 0.374436564627095 0  -0.1837098359759774 0.1929485386776155 0  -0.1210077767998366 -0.2331474219302516 0  -0.4388230181844467 -0.3736756227341544 0  0.2385916116983025 -0.2446215854929363 0  0.01618154697154811 -0.392205807603664 0  0.3033224724982568 0.1345019962362828 0  0.1269856324747013 0.4273682536406486 0  -0.2618767198442009 -0.02513308225372456 0  -0.1869024341550137 0.3523407916866587 0  0.4460792014197047 0.2150519456240759 0  -0.228067921023645 -0.1261420173261541 0  0.4375111104956734 0.3693541778847931 0  -0.2344434115929863 0.441225502334267 0  -0.1349409233725989 -0.3081519167298867 0  0.2361921270004774 0.236858231392783 0  -0.1134625589296566 0.3058057213872041 0  0.1364902237265291 -0.2193600350069504 0  -0.231009496195906 -0.2899916451544192 0  -0.4420301468408164 -0.0153626464053197 0  -0.3638407636123014 0.04989392276612995 0  -0.2281634567999949 -0.2293698735254731 0  -0.2404608239114909 0.2480193450766527 0  0.1548586079872366 0.3161601351946364 0  -0.2905808065687782 -0.2309892133488608 0  0.1583090638615736 -0.3223807786382032 0  0.3037640590628244 -0.1367963242859415 0  0.441474411355182 -0.3710236808063671 0  -0.1184457037417267 0.4214861255011078 0  0.3280783743867655 -0.2503846686276005 0  0.4421147536667354 -0.254616967737483 0  -0.4419160956032748 -0.2544205585064326 0  -0.3074463395544132 -0.1359279022829991 0  0.3366964226424555 0.256991018383815 0  -0.4508616135570574 0.21875 0  -0.3395120610056381 0.2372377549435862 0  -0.2261617732606898 -0.4465036260914809 0  0.2350726063974556 0.2936290504086719 0  0.007756726855498133 0.253726523067807 0  0.2816091581197124 -0.4531847002458751 0  0.002693579241951911 -0.4452927028974097 0  0.2614770372227774 0.3432624384800261 0  0.2905620892368345 0.2263682042801985 0  -0.2876366597373845 0.2178464403043631 0  0.2807413030307
[...]
<PointData  Vectors="f_44"> 
<DataArray  type="Float64"  Name="f_44"  NumberOfComponents="3" format="ascii">-5.7068752133253992e-03 1.4693877551020409e-01 0.0000000000000000e+00  -2.7898544413853106e-04 5.3155204989515661e-04 0.0000000000000000e+00  2.1573547714764596e-04 4.5712447051633910e-04 0.0000000000000000e+00  -6.3789006239985194e-03 1.4693877551020409e-01 0.0000000000000000e+00  0.0000000000000000e+00 0.0000000000000000e+00 0.0000000000000000e+00  0.0000000000000000e+00 0.0000000000000000e+00 0.0000000000000000e+00  0.0000000000000000e+00 0.0000000000000000e+00 0.0000000000000000e+00  0.0000000000000000e+00 0.0000000000000000e+00 0.0000000000000000e+00  0.0000000000000000e+00 0.0000000000000000e+00 0.0000000000000000e+00  0.0000000000000000e+00 0.0000000000000000e+00 0.0000000000000000e+00  0.0000000000000000e+00 0.0000000000000000e+00 0.0000000000000000e+00  0.0000000000000000e+00 0.0000000000000000e+00 0.0000000000000000e+00  0.0000000000000000e+00 0.0000000000000000e+00 0.0000000000000000e+00  0.0000000000000000e+00 0.0000000000000000e+00 0.0000000000000000e+00  0.0000000000000000e+00 0.0000000000000000e+00 0.0000000000000000e+00  0.0000000000000000e+00 0.0000000000000000e+00 0.0000000000000000e+00  0.0000000000000000e+00 0.0000000000000000e+00 0.0000000000000000e+00  0.0000000000000000e+00 0.0000000000000000e+00 0.0000000000000000e+00  0.0000000000000000e+00 0.0000000000000000e+00 0.0000000000000000e+00  0.0000000000000000e+00 0.0000000000000000e+00 0.0000000000000000e+00  0.0000000000000000e+00 0.0000000000000000e+00 0.0000000000000000e+00  0.0000000000000000e+00 0.0000000000000000e+00 0.0000000000000000e+00  0.0000000000000000e+00 0.0000000000000000e+00 0.0000000000000000e+00  0.0000000000000000e+00 0.0000000000000000e+00 0.0000000000000000e+00  0.0000000000000000e+00 0.0000000000000000e+00 0.0000000000000000e+00  0.0000000000000000e+00 0.0000000000000000e+00 0.0000000000000000e+00  0.0000000000000000e+00 0.0000000000000000e+00 0.0000000000000000e+00  0.0000000000000000e+00 0.0000000000000000e+00 0.0000000000000000e+00  0.0000000000000000e+00 0.0000000000000000e+00 0.0000000000000000e+00  0.0000000000000000e+00 0.0000000000000000e+00 0.0000000000000000e+00  0.0000000000000000e+00 0.0000000000000000e+00 0.0000000000000000e+00  0.0000000000000000e+00 0.0000000000000000e+00 0.0000000000000000e+00  0.0000000000000000e+00 0.0000000000000000e+00 0.0000000000000000e+00  0.0000000000000000e+00 0.0000000000000000e+00 0.0000000000000000e+00  0.0000000000000000e+00 0.0000000000000000e+00 0.0000000000000000e+00  0.0000000000000000e+00 0.0000000000000000e+00 0.0000000000000000e+00  0.0000000000000000e+00 0.0000000000000000e+00 0.0000000000000000e+00  0.0000000000000000e+00 0.0000000000000000e+00 0.0000000000000000e+00  0.0000000000000000e+00 0.0000000000000000e+00 0.0000000000000000e+00  0.0000000000000000e+00 0.0000000000000000e+00 0.0000000000000000e+00  0.0000000000000000e+00 0.0000000000000000e+00 0.0000000000000000e+00  0.0000000000000000e+00 0.0000000000000000e+00 0.0000000000000000e+00  0.0000000000000000e+00 0.0000000000000000e+00 0.0000000000000000e+00  0.0000000000000000e+00 0.0000000000000000e+00 0.0000000000000000e+00  0.0000000000000000e+00 0.0000000000000000e+00 0.0000000000000000e+00  0.0000000000000000e+00 0.0000000000000000e+00 0.0000000000000000e+00  0.0000000000000000e+00 0.0000000000000000e+00 0.0000000000000000e+00  0.0000000000000000e+00 0.0000000000000000e+00 0.0000000000000000e+00  0.0000000000000000e+00 0.0000000000000000e+00 0.0000000000000000e+00  0.0000000000000000e+00 0.0000000000000000e+00 0.0000000000000000e+00  0.0000000000000000e+00 0.0000000000000000e+00 0.0000000000000000e+00  0.0000000000000000e+00 0.0000000000000000e+00 0.0000000000000000e+00  0.0000000000000000e+00 0.0000000000000000e+00 0.0000000000000000e+00  0.0000000000000000e+00 0.0000000000000000e+00 0.0000000000000000e+00  0.0000000000000000e+00 0.0000000000000000e+00 0.0000000000000000e+00  0.0000000000000000e+00 0.0000000000000000e+00 0.0000000000000000e+00  0.0000000000000000e+00 0.0000000000000000e+00 0.0000000000000000e+00  0.0000000000000000e+00 0.0000000000000000e+00 0.0000000000000000e+00  0.0000000000000000e+00 0.0000000000000000e+00 0.0000000000000000e+00  0.0000000000000000e+00 0.0000000000000000e+00 0.0000000000000000e+00  0.0000000000000000e+00 0.0000000000000000e+00 0.0000000000000000e+00  0.0000000000000000e+00 0.0000000000000000e+00 0.0000000000000000e+00  0.0000000000000000e+00 0.0000000000000000e+00 0.0000000000000000e+00  -2.9957096394869274e-05 9.0213722810407636e-05 0.0000000000000000e+00  -6.0258034074988148e-03 1.4693877551020409e-01 0.0000000000000000e+00  1.0244061851219788e-04 8.6043785540449282e-04 0.0000000000000000e+00  -1.1456736603204555e-04 7.6708715248430346e-04 0.0000000000000000e+00  1.8141208572359605e-04 2.3008179697531472e-04 0.0000000000000000e+00  -6.2388900429282707e-03 1.4693877551020409e-01 0.0000000000000000e+00  -7.2085698554622789e-03 1.4552570739418383e-01 0.0000000000000000e+00  7.5301254465717692e-05 4.9164510623511844e-04 0.0000000000000000e+00  -5.8570180298953920e-03 1.4693877551020409e-01 0.0000000000000000e+00  -2.4440930057129372e-04 2.6722779359871472e-04 0.0000000000000000e+00  -1.0600376658076236e-04 5.6643925927825779e-04 0.0000000000000000e+00  2.0776910395562810e-03 1.3753437148873157e-01 0.0000000000000000e+00  -6.3034659485438826e-03 1.4656069033094293e-01 0.0000000000000000e+00  9.2423192497661195e-05 2.5417985493555935e-04 0.0000000000000000e+00  -5.6975276125308160e-03 1.4645542256162475e-01 0.0000000000000000e+00  -1.2684761193189833e-04 3.0337822961956613e-04 0.0000000000000000e+00  -5.9073209494404011e-03 1.4676133130016841e-01 0.0000000000000000e+00  4.4907958015808389e-05 4.1247743906318350e-04 0.0000000000000000e+00  -6.1716174322328952e-03 1.4670049799237173e-01 0.0000000000000000e+00  -2.6896355903149925e-04 6.6096062056413788e-04 0.0000000000000000e+00  -6.2601713407716900e-05 4.6953893791220301e-04 0.0000000000000000e+00  -8.9316710778391598e-05 1.1085481709767771e-04 0.0000000000000000e+00  4.9856972516730881e-05 9.5414142405618715e-05 0.0000000000000000e+00  2.2014368401712382e-04 6.9655891526892283e-04 0.0000000000000000e+00  -5.6419610822487452e-03 1.4659196445854725e-01 0.0000000000000000e+00  1.3203950475348310e-04 4.5804622132010394e-04 0.0000000000000000e+00  -2.7818842507979576e-04 4.1183122467109855e-04 0.0000000000000000e+00  -6.4000647464736984e-03 1.4668959765789216e-01 0.0000000000000000e+00  -5.7897910212768681e-03 1.4693877551020407e-01 0.0000000000000000e+00  2.1471673462802925e-04 3.5539368729598251e-04 0.0000000000000000e+00  -1.7788309345221907e-04 5.3234924103009974e-04 0.0000000000000000e+00  -6.3129699239572561e-03 1.4693877551020409e-01 0.0000000000000000e+00  -1.5537970039184141e-05 4.2655626075396947e-05 0.0000000000000000e+00  -6.0359035161634501e-03 1.4671393347446934e-01 0.0000000000000000e+00  3.5764579155232073e-04 1.1400073148727155e-03 0.0000000000000000e+00  -1.5521431678731598e-04 1.4321293283442503e-04 0.0000000000000000e+00  -2.9942672015926449e-05 6.6991605009529684e-04 0.0000000000000000e+00  -3.5469159965096183e-04 1.0097415626914893e-03 0.0000000000000000e+00  1.0481264941258333e-05 5.9144042357928822e-04 0.0000000000000000e+00  9.4341057330752853e-05 1.2546690503122563e-04 0.0000000000000000e+00  -5.9272997231724451e-03 1.4693877551020409e-01 0.0000000000000000e+00  -6.1410782705699366e-03 1.4693877551020409e-01 0.0000000000000000e+00  -5.9374427551759260e-05 5.3223985402634985e-04 0.0000000000000000e+00  -5.7292984863180300e-03 1.4671092073972761e-01 0.0000000000000000e+00  4.0852784380097476e-05 6.1215509252452675e-04 0.0000000000000000e+00  -5.8303576759491053e-03 1.4677581991678146e-01 0.0000000000000000e+00  1.3188761533276873e-04 3.5781035299783888e-04 0.0000000000000000e+00  -1.7843664430259795e-04 4.1558014174734572e-04 0.0000000000000000e+00  -6.3401254831937171e-03 1.4674198940412614e-01 0.0000000000000000e+00  -8.1023542750505319e-05 1.3218544715067925e-04 0.0000000000000000e+00  -8.3105039230683221e-05 2.4455663219518866e-04 0.0000000000000000e+00  1.9036454736162916e-04 8.5257349200900312e-04 0.0000000000000000e+00  8.4503446470344840e-05 3.9641689562677968e-04 0.0000000000000000e+00  -5.4726502002496449e-03 1.4568818840863740e-01 0.0000000000000000e+00  -2.8081587335123634e-04 4.7317058502180641e-04 0.0000000000000000e+00  6.3731591652864698e-05 2.1042379097077724e-04 0.0000000000000000e+00  5.4771218646069242e-05 1.0717596829012789e-04 0.0000000000000000e+00  -1.1158734414400970e-04 4.6024422988122685e-04 0.0000000000000000e+00  -1.5073327435270072e-04 2.3404603679759531e-04 0.0000000000000000e+00  -6.2700931073357575e-03 1.4676315232044590e-01 0.0000000000000000e+00  -6.2513317914610154e-03 1.4581058127499999e-01 0.0000000000000000e+00  1.2141173808295601e-04 2.4374287017832387e-04 0.0000000000000000e+00  2.5459174452853396e-04 4.1989227799296756e-04 0.0000000000000000e+00  5.2299476312346615e-04 1.1111462130462674e-03 0.0000000000000000e+00  -6.3060155253265044e-03 1.4584533087374063e-01 0.0000000000000000e+00  5.0387773357778428e-05 3.8603955414623814e-04 0.0000000000000000e+00  -4.3829055851321381e-05 5.1027331623012319e-05 0.0000000000000000e+00  2.8418203548860399e-05 2.6275369813327510e-04 0.0000000000000000e+00  -7.0176823378374316e-03 1.4381888430218490e-01 0.0000000000000000e+00  -1.1239799290176654e-04 3.6904230299162667e-04 0.0000000000000000e+00  2.0198358754160950e-05 4.2613557008019759e-05 0.0000000000000000e+00  -4.6682707665732828e-05 2.7910753577097339e-04 0.0000000000000000e+00  -6.1994738748156943e-03 1.4682201643706330e-01 0.0000000000000000e+00  -5.3125231635108274e-05 7.5496965912407157e-05 0.0000000000000000e+00  1.0290177887129860e-04 1.6191191526082645e-04 0.0000000000000000e+00  2.1684029068147979e-05 7.9773330713351463e-05 0.0000000000000000e+00  -1.8905036579419253e-04 7.4522625934045350e-04 0.0000000000000000e+00  -6.0942837529552076e-03 1.4681871979573219e-01 0.0000000000000000e+00  -5.9702064886710104e-03 1.4684393954140285e-01 0.0000000000000000e+00  -6.4186388872884354e-03 1.4663309703407462e-01 0.0000000000000000e+00  -1.4410840396152891e-04 4.9272120938992814e-04 0.0000000000000000e+00  -2.0543267026454986e-04 3.3343332314733404e-04 0.0000000000000000e+00  1.0614783128765405e-04 4.2652527005374290e-04 0.0000000000000000e+00  -5.8121012467629496e-03 1.4684029696399115e-01 0.0000000000000000e+00  -5.5774317025895567e-03 1.4653474738772901e-01 0.0000000000000000e+00  -5.7375918183485879e-03 1.4679923569900089e-01 0.0000000000000000e+00  2.0877999694828719e-04 9.8946322049534388e-04 0.0000000000000000e+00  -4.1149138023308720e-05 6.6989667670779398e-04 0.0000000000000000e+00  1.7026621634430521e-04 4.5649488113263777e-04 0.0000000000000000e+00  -2.7961805138814464e-04 4.7536198777733485e-04 0.0000000000000000e+00  -6.3836516041127474e-03 1.4681736684121235e-01 0.0000000000000000e+00  -5.8905250559218711e-03 1.4693877551020409e-01 0.0000000000000000e+00  -1.2465277044544256e-05 6.4231558626438921e-04 0.0000000000000000e+00  8.2842960464186662e-05 1.7080163029136670e-04 0.0000000000000000e+00  -6.2407793862176405e-03 1.4666431744727568e-01 0.0000000000000000e+00  5.3982145064947040e-05 4.8662872319771294e-04 0.0000000000000000e+00  -1.4293308030660165e-04 1.6691325158221451e-04 0.0000000000000000e+00  -5.9172164302657895e-04 1.2260198589205842e-03 0.0000000000000000e+00  -7.1427054755515991e-05 6.0810566944574358e-04 0.0000000000000000e+00  -2.9244856096909065e-05 3.3380607591948795e-04 0.0000000000000000e+00  1.1748905004201053e-04 3.3376638104896136e-04 0.0000000000000000e+00  -7.5888673559864353e-05 5.5071841655081094e-04 0.0000000000000000e+00  -6.8318277679113473e-06 5.5409049572123232e-04 0.0000000000000000e+00  -4.0185002496084685e-04 8.7628565356641592e-04 0.0000000000000000e+00  -5.8879097761457269e-03 1.4684114192238248e-01 0.0000000000000000e+00  3.5209919813916250e-04 7.0480884116328748e-04 0.0000000000000000e+00  -1.4109743644840364e-04 4.0709066856052333e-04 0.0000000000000000e+00  1.6128006245927015e-04 8.0324017119093761e-04 0.0000000000000000e+00  -5.6190026018124424e-03 1.4648633002469882e-01 0.0000000000000000e+00  -1.5881935893395120e-04 3.2095335912989533e-04 0.0000000000000000e+00  -6.2788772375334733e-03 1.4693877551020407e-01 0.0000000000000000e+00  1.5921535661930935e-04 3.1375988286197519e-04 0.0000000000000000e+00  -6.3633969430723115e-03 1.4662349904241048e-01 0.0000000000000000e+00  3.7244806707767322e-04 9.6418381387978602e-04 0.0000000000000000e+00  2.1629107075359354e-04 4.0973187386756483e-04 0.0000000000000000e+00  -2.2471965704966832e-04 5.3095528366524814e-04 0.0000000000000000e+00  -6.3445857596569569e-03 1.4693877551020409e-01 0.0000000000000000e+00  1.0421969505181386e-04 3.4568555225323938e-04 0.0000000000000000e+00  -1.0870042202350592e-04 1.6733256849082962e-04 0.0000000000000000e+00  7.2498358131664687e-05 3.3228581184950476e-04 0.0000000000000000e+00  -6.2985337736589930e-03 1.4682844673222528e-01 0.0000000000000000e+00  -9.5116844550600924e-05 3.8333962749047024e-04 0.0000000000000000e+00  -3.9705767002052369e-04 7.3930459442467461e-04 0.0000000000000000e+00  1.6336182300093530e-04 4.0281800031509468e-04 0.0000000000000000e+00  -5.7880456313905357e-03 1.4664732493434232e-01 0.0000000000000000e+00  -2.2435032518679847e-04 4.4457375237534760e-04 0.0000000000000000e+00  -6.3471215164453343e-03 1.4681654393186089e-01 0.0000000000000000e+00  -2.2945504379226144e-05 4.5305898560706227e-04 0.0000000000000000e+00  -6.2100441036369707e-06 2.0128547511791700e-05 0.0000000000000000e+00  4.6642460881848742e-05 9.9707996778328523e-05 0.0000000000000000e+00  -5.7769278505666929e-03 1.4673597111508657e-01 0.0000000000000000e+00  -5.0438650156766885e-05 6.3865285274660434e-05 0.0000000000000000e+00  1.5953513928072938e-05 5.6647202539117458e-05 0.0000000000000000e+00  -1.8804158512740731e-04 2.7495322058316695e-04 0.0000000000000000e+00  6.6310574048013504e-05 1.1127598961678867e-04 0.0000000000000000e+00  1.4458146380685907e-04 1.8480000184612752e-04 0.0000000000000000e+00  -1.0315266600611373e-04 1.1270169871614381e-04 0.0000000000000000e+00  -6.0745978809209388e-03 1.4638593942010777e-01 0.0000000000000000e+00  -5.8878079812182682e-05 1.1795038118040234e-04 0.0000000000000000e+00  -1.2733619389414488e-04 2.6548269070074605e-04 0.0000000000000000e+00  5.9263008149767560e-04 1.3377209713975131e-03 0.0000000000000000e+00  -5.9652548568682436e-03 1.4674153939393531e-01 0.0000000000000000e+00  -6.1166271235600445e-03 1.4664922942480904e-01 0.0000000000000000e+00  -6.0280640244347022e-03 1.4683173350746642e-01 0.0000000000000000e+00  -6.3124678202392103e-03 1.4668816408762761e-01 0.0000000000000000e+00  -9.1095130206859300e-05 6.6855854464304733e-04 0.0000000000000000e+00  7.9534309636307369e-06 4.2055584176031756e-04 0.0000000000000000e+00  -1.4804454513684767e-04 5.9230191284928417e-04 0.0000000000000000e+00  1.1274027638312214e-04 2.8851430953573881e-04 0.0000000000000000e+00  4.7198336575061669e-05 5.3206902711255301e-04 0.0000000000000000e+00  2.5675657816727146e-05 7.5373643844327037e-04 0.0000000000000000e+00  -5.5080809730746931e-03 1.4636753767681263e-01 0.0000000000000000e+00  -2.0626920782061478e-04 1.9900836865510268e-04 0.0000000000000000e+00  -5.8238068532586919e-03 1.4693877551020409e-01 0.0000000000000000e+00  -2.6774509513949725e-04 3.4072025150072615e-04 0.0000000000000000e+00  -1.3952762767054205e-04 5.4240613530766367e-04 0.0000000000000000e+00  -6.4561452354181823e-03 1.4652796772980453e-01 0.0000000000000000e+00  -5.9719919880145802e-03 1.4693877551020409e-01 0.0000000000000000e+00  -2.1588934591868530e-04 8.8076444448286384e-04 0.0000000000000000e+00  3.4671427425808513e-05 9.7093459533880851e-05 0.0000000000000000e+00  1.4421445895006506e-04 1.7153452713957655e-04 0.0000000000000000e+00  2.0444763773371066e-04 2.9372086666762230e-04 0.0000000000000000e+00  -6.1927918009191379e-03 1.4693877551020409e-01 0.0000000000000000e+00  -6.0842620517099861e-03 1.4693877551020412e-01 0.0000000000000000e+00  1.0163002548806419e-04 4.6803579030489829e-04 0.0000000000000000e+00  -5.7524672792854531e-03 1.4693877551020409e-01 0.0000000000000000e+00  -5.6918572559632357e-03 1.4676879579700147e-01 0.0000000000000000e+00  -9.4998093962750030e-05 1.0594874628404970e-04 0.0000000000000000e+00  -5.7757284106747424e-03 1.4682622891298247e-01 0.0000000000000000e+00  4.0812317361395845e-05 1.5037164819184829e-04 0.0000000000000000e+00  -1.2805163536513939e-04 2.6871194632135047e-04 0.0000000000000000e+00  -5.6872338936652250e-03 1.4666892842782234e-01 0.0000000000000000e+00  1.7833620311120122e-04 2.1928849511824593e-04 0.0000000000000000e+00  -4.4500292009400951e-05 5.6259431426129296e-05 0.0000000000000000e+00  -1.7834970381104122e-04 4.8194784211472077e-04 0.0000000000000000e+00  7.2437265765523979e-05 1.8428120022384473e-04 0.0000000000000000e+00  -1.1350568893903573e-05 6.0498958703234925e-05 0.0000000000000000e+00  -2.3613016961752042e-04 5.1753248891868897e-04 0.0000000000000000e+00  -6.1515038386738465e-03 1.4680918088181391e-01 0.0000000000000000e+00  -8.8690752423795039e-06 2.4488659889138504e-04 0.0000000000000000e+00  -5.8585030242278933e-03 1.4675092219460309e-01 0.0000000000000000e+00  -6.3182388764352509e-04 1.2058574661096180e-03 0.0000000000000000e+00  -5.2087925864456837e-05 1.5982469472901374e-04 0.0000000000000000e+00  -6.3707770184305169e-03 1.4671712169184220e-01 0.0000000000000000e+00  -5.8582894704309173e-03 1.4686028919074229e-01 0.0000000000000000e+00  -7.6242265124756452e-05 1.0203648510978819e-04 0.0000000000000000e+00  -6.9551057314431650e-04 1.3984172319384315e-03 0.0000000000000000e+00  -5.9061790943720814e-03 1.4661109202369144e-01 0.0000000000000000e+00  3.1225443547906676e-05 5.1276239266474250e-05 0.0000000000000000e+00  -1.1039844395548724e-04 2.1342948359940499e-04 0.0000000000000000e+00  5.3059838987682132e-05 7.3472813651423018e-04 0.0000000000000000e+00  1.1076035272588247e-04 6.2622043934379618e-04 0.0000000000000000e+00  -9.0467561228370309e-05 1.9579009916039219e-04 0.0000000000000000e+00  3.9454052908808088e-04 7.7014977268993767e-04 0.0000000000000000e+00  -6.2195359673280753e-03 1.4659761039089650e-01 0.0000000000000000e+00  -1.0676186316138994e-04 3.0277759200724141e-04 0.0000000000000000e+00  5.7521056112753530e-05 1.0925157934600513e-04 0.0000000000000000e+00  5.4532775210545556e-05 2.9438715351184290e-04 0.0000000000000000e+00  1.3128642585912665e-04 4.1855796296241533e-04 0.0000000000000000e+00  -5.9248658477998708e-03 1.4683432512369815e-01 0.0000000000000000e+00  8.7834471592801810e-05 3.1436530486187488e-04 0.0000000000000000e+00  8.4985283670832335e-05 4.5032093303221099e-04 0.0000000000000000e+00  -1.1627293305457929e-04 5.1775589517254628e-04 0.0000000000000000e+00  -7.2616702479467741e-05 3.4628301846842792e-04 0.0000000000000000e+00  -6.3476466565242059e-03 1.4632450970232153e-01 0.0000000000000000e+00  6.6891811200845048e-04 1.3133031530717441e-03 0.0000000000000000e+00  6.7808723941761829e-04 1.5605709438587800e-03 0.0000000000000000e+00  -1.8247763695541298e-04 2.3151684838991881e-04 0.0000000000000000e+00  -6.2793590188493032e-03 1.4654439848452580e-01 0.0000000000000000e+00  1.3186532433369751e-05 1.8255292810156779e-04 0.0000000000000000e+00  1.5505926820760275e-04 2.5720057736152753e-04 0.0000000000000000e+00  -2.3794557347229054e-05 7.4600200605310938e-05 0.0000000000000000e+00  -6.2779575652031983e-03 1.4667128937161045e-01 0.0000000000000000e+00  -2.0847517576133830e-04 1.4317906228090592e-03 0.0000000000000000e+00  3.9062255094179601e-04 6.7688055778233956e-04 0.0000000000000000e+00  -6.2628369281697502e-03 1.4685881635066828e-01 0.0000000000000000e+00  1.2135137434229987e-04 2.2422175529802885e-04 0.0000000000000000e+00  -5.5013950259712487e-03 1.4590268686004751e-01 0.0000000000000000e+00  3.7992837724830098e-04 8.5107540968931564e-04 0.0000000000000000e+00  -1.