<?xml version="1.0"?>
<VTKFile type="UnstructuredGrid"  version="0.1"  >
<UnstructuredGrid>
<Piece  NumberOfPoints="5173" NumberOfCells="9966">
<Points>
<DataArray  type="Float64"  NumberOfComponents="3"  format="ascii">-0.5 0.5 0  -0.5 -0.5 0  0.5 -0.5 0  0.5 0.5 0  0.1998669600420274 0.02125869712947308 0  0.201 0 0  0.1998669600420274 -0.02125869712947312 0  0.1964806779635733 -0.04227652472592507 0  0.1908795216936763 -0.06281534240438978 0  0.1831269545709826 -0.08264243715367564 0  0.1733108162787611 -0.1015331600677681 0  0.1615423275861927 -0.1192734717077003 0  0.1479548301726135 -0.1356623672539232 0  0.1327022758130076 -0.1505141539712278 0  0.1159574820428814 -0.1636605551816338 0  0.09791017406652992 -0.1749526169063923 0  0.07876483509466403 -0.1842623955740826 0  0.05873838946792427 -0.1914844076724011 0  0.03805774481742277 -0.1965368249185042 0  0.01695722111061653 -0.1993624014061501 0  -0.004324104287555032 -0.1999291222246905 0  -0.02554510545674447 -0.1982305662008014 0  -0.04646533997422303 -0.194285978652942 0  -0.06684777322360611 -0.1881400533342067 0  -0.08646146409177112 -0.1798624260342438 0  -0.1050841816239485 -0.1695468855779342 0  -0.1225049229892384 -0.1573103111605285 0  -0.138526304226997 -0.143291348059663 0  -0.1529667966859812 -0.127648836728964 0  -0.165662783816503 -0.1105600130722386 0  -0.1764704150113143 -0.0922185002898652 0  -0.1852672354904677 -0.07283211505056446 0  -0.1919535737629032 -0.05262051284550421 0  -0.1964536709442689 -0.03181269920381437 0  -0.1987165391353524 -0.0106444349684357 0  -0.1987165391353524 0.01064443496843575 0  -0.1964536709442689 0.03181269920381442 0  -0.1919535737629032 0.05262051284550433 0  -0.1852672354904677 0.07283211505056443 0  -0.1764704150113143 0.09221850028986515 0  -0.165662783816503 0.1105600130722387 0  -0.1529667966859812 0.1276488367289641 0  -0.1385263042269969 0.1432913480596631 0  -0.1225049229892383 0.1573103111605285 0  -0.1050841816239485 0.1695468855779342 0  -0.08646146409177108 0.1798624260342438 0  -0.06684777322360606 0.1881400533342067 0  -0.04646533997422297 0.194285978652942 0  -0.02554510545674437 0.1982305662008015 0  -0.004324104287554939 0.1999291222246905 0  0.01695722111061662 0.19936240140615 0  0.03805774481742286 0.1965368249185042 0  0.05873838946792424 0.1914844076724011 0  0.07876483509466414 0.1842623955740826 0  0.09791017406653006 0.1749526169063922 0  0.1159574820428814 0.1636605551816338 0  0.1327022758130078 0.1505141539712277 0  0.1479548301726135 0.1356623672539232 0  0.1615423275861927 0.1192734717077003 0  0.1733108162787612 0.101533160067768 0  0.1831269545709827 0.08264243715367564 0  0.1908795216936763 0.06281534240438975 0  0.1964806779635734 0.04227652472592486 0  0 -0.5 0  0 0.5 0  -0.5 0 0  0.5 0 0  0.25 -0.5 0  0.25 0.5 0  0.5 0.25 0  0.5 -0.25 0  -0.25 0.5 0  -0.25 -0.5 0  -0.5 -0.25 0  -0.5 0.25 0  0.2918258229480683 0.2918258229480682 0  0.2865867850624828 -0.2932931940421196 0  -0.2962949893701896 0.274449924397287 0  -0.2913160373738303 -0.2913160373738304 0  -0.125 0.3636995408959175 0  0.3637738468862107 -0.1261303957107176 0  0.125 0.3665964626830409 0  0.3640958654762797 0.1232161970438493 0  -0.3624000654276585 -0.1218337159209422 0  -0.125 -0.3668200952157802 0  0.125 -0.3712838880907947 0  -0.3600991828528437 0.1089843577122111 0  -0.5 0.375 0  0.5 -0.375 0  -0.375 -0.5 0  0.5 0.375 0  -0.375 0.5 0  0.375 -0.5 0  -0.5 -0.375 0  0.375 0.5 0  0.0006860903712339345 -0.3306266888645853 0  -0.000109901520948898 0.3746323380112415 0  -0.5 0.125 0  -0.125 -0.5 0  -0.5 -0.125 0  0.5 0.125 0  0.5 -0.125 0  0.125 -0.5 0  -0.125 0.5 0  0.125 0.5 0  0.3748576787807123 -0.001471205609738957 0  -0.3738828512115154 0.3738828512115154 0  -0.3827617049088436 -0.006210238480157219 0  -0.2429234745416257 0.3810213699917807 0  0.3769180353829246 -0.3769180353829246 0  -0.3777687524152424 -0.3777687524152424 0  0.3780704009792175 0.3780704009792175 0  -0.1776483227107271 -0.2618630460446135 0  -0.2604485542051718 -0.1787215021996984 0  -0.1798547561877991 0.2599748505350166 0  0.3864703130478905 -0.2380123189195306 0  0.1785319646943122 0.2625417448451246 0  0.261692611046212 0.1791168901036931 0  0.2607171500730768 -0.1799460669666111 0  0.1733970740599892 -0.2651674952354912 0  -0.3880520258539732 -0.2322407641539351 0  -0.2352016482221373 -0.388638232840279 0  0.2734696242623063 0.3964265996649794 0  0.3883795026617865 0.233417864889234 0  0.2738670858792859 -0.3976331321261044 0  -0.2491638954018168 0.1780101911767213 0  -0.3926686215746083 0.2165776265637375 0  0.07109213498061834 0.2869023807262104 0  -0.2934183534017453 0.03147305416145122 0  -0.08119265072200343 -0.2826195781877594 0  0.2836913223256923 -0.07709296110799269 0  -0.0558729689268372 0.2928347535333279 0  0.2830965643121598 0.07693076420704528 0  0.08122371629649494 -0.2825469282280794 0  -0.2767834230915197 -0.08819590430941976 0  0.1875 0.4332982313415205 0  -0.04303186331845871 -0.4151376431551652 0  0.190970733019215 -0.4322714131851434 0  0.06249999999999999 -0.4356419440453974 0  0.4328061849987423 0.06633847947711793 0  0.0664712649494027 0.4332982313415205 0  -0.06249999999999998 0.4373709104419552 0  0.4341377633941729 0.309372588857957 0  -0.4374372828954266 -0.3125 0  -0.3104572497507675 -0.4353019888851174 0  0.4374701104890421 -0.3125 0  -0.3116291712721947 0.4366347031852421 0  -0.4374901042687089 0.3125 0  -0.4363926600558238 0.4363926600558238 0  -0.5 0.0625 0  0.5 -0.0625 0  0.5 -0.4375 0  -0.4375 -0.5 0  0.5 0.4375 0  -0.1875 0.5 0  -0.4323246583268963 -0.07454303397230311 0  0.2154950463309389 -0.3375719358844427 0  0.206977802238796 0.342973363124546 0  0.4322596267199844 -0.1704803839098939 0  -0.1690769129391571 -0.4334100476078901 0  0.5 0.1875 0  -0.5 -0.1875 0  0.2967149326504868 -2.965984816150069e-05 0  -0.2579082457853068 0.1006999711688991 0  -0.4261732609354634 -0.1652001701086123 0  0.4197274728231854 -0.06828306080156128 0  0.4316260558094222 0.15625 0  -0.1765935890523967 0.4225213035878151 0  -0.326101012911042 0.1780020696215199 0  -0.3639018823524438 -0.3051829074366289 0  -0.4219359613016062 0.06132313683084987 0  -0.368871881750981 0.2861301036496543 0  -0.3031928482819811 -0.3630024307590357 0  0.3125 0.5 0  0.3355547846059301 -0.437829382399898 0  0.3620936304880762 0.3078025934392096 0  -0.4265460575686851 0.1475964618934338 0  0.4375 -0.5 0  -0.5 -0.4375 0  0.4375 0.5 0  0.3587983613906559 -0.3058906763528768 0  -0.1889171018677358 -0.3331988582480375 0  0.3319769361362775 -0.1908238194547704 0  0.3337713745363715 0.4328433800405805 0  -0.3319644446835826 -0.1870886352472088 0  0.3329253892881625 0.1878611701133833 0  0.4281511341447153 -0.4281511341447153 0  -0.232840147849867 0.3093215053326949 0  -0.40625 -0.4395608850352885 0  0.428794887401249 0.428794887401249 0  -0.3380841551254475 -0.05794700007688498 0  0.008054260670409629 -0.2648994211243904 0  0.1899220001124564 -0.1947534447033338 0  -0.3080416507322476 0.3708200057439822 0  -0.06307278823153059 -0.3455430469652901 0  0.06447087227249242 -0.3459780260685607 0  0.1914876772934198 0.1922953616824615 0  0.1267822167193652 -0.4357424153550361 0  -0.1100367963981227 0.2468729543145758 0  -0.1040301628609493 -0.4382371732506554 0  0.008496887133013969 0.3088587185741126 0  -0.1939711685411953 -0.1799889819170536 0  0.1169089524024441 0.2383640108781663 0  -0.5 0.1875 0  -0.06301873836730842 0.3744639870876723 0  0.0612272731888486 0.3516549422231338 0  0.0001842875295821901 0.4373159592812666 0  0.315570863666392 0.3499038328432952 0  0.43737589643705 0.003767781375474147 0  0.3480437072584214 -0.06190943679164183 0  0.3704548124556613 0.06095691071954262 0  0.3139725644615085 -0.3495769689516506 0  0.5 -0.1875 0  -0.5 -0.0625 0  -0.5 0.3125 0  -0.1875 -0.5 0  -0.3125 0.5 0  -0.3125 -0.5 0  -0.5 -0.3125 0  0.5 0.3125 0  -0.0625 0.5 0  0.5 0.0625 0  0.0625 -0.5 0  0.1875 -0.5 0  0.3125 -0.5 0  0.1875 0.5 0  0.0625 0.5 0  0.5 -0.3125 0  -0.4375 0.5 0  -0.5 0.4375 0  -0.0625 -0.5 0  -0.3740130545720807 0.4376162026208867 0  0.2356432480937504 -0.1203529309141897 0  0.2354253261260549 0.120280228505195 0  -0.4358389466402443 0.374436564627095 0  -0.1837098359759774 0.1929485386776155 0  -0.1210077767998366 -0.2331474219302516 0  -0.4388230181844467 -0.3736756227341544 0  0.2385916116983025 -0.2446215854929363 0  0.01618154697154811 -0.392205807603664 0  0.3033224724982568 0.1345019962362828 0  0.1269856324747013 0.4273682536406486 0  -0.2618767198442009 -0.02513308225372456 0  -0.1869024341550137 0.3523407916866587 0  0.4460792014197047 0.2150519456240759 0  -0.228067921023645 -0.1261420173261541 0  0.4375111104956734 0.3693541778847931 0  -0.2344434115929863 0.441225502334267 0  -0.1349409233725989 -0.3081519167298867 0  0.2361921270004774 0.236858231392783 0  -0.1134625589296566 0.3058057213872041 0  0.1364902237265291 -0.2193600350069504 0  -0.231009496195906 -0.2899916451544192 0  -0.4420301468408164 -0.0153626464053197 0  -0.3638407636123014 0.04989392276612995 0  -0.2281634567999949 -0.2293698735254731 0  -0.2404608239114909 0.2480193450766527 0  0.1548586079872366 0.3161601351946364 0  -0.2905808065687782 -0.2309892133488608 0  0.1583090638615736 -0.3223807786382032 0  0.3037640590628244 -0.1367963242859415 0  0.441474411355182 -0.3710236808063671 0  -0.1184457037417267 0.4214861255011078 0  0.3280783743867655 -0.2503846686276005 0  0.4421147536667354 -0.254616967737483 0  -0.4419160956032748 -0.2544205585064326 0  -0.3074463395544132 -0.1359279022829991 0  0.3366964226424555 0.256991018383815 0  -0.4508616135570574 0.21875 0  -0.3395120610056381 0.2372377549435862 0  -0.2261617732606898 -0.4465036260914809 0  0.2350726063974556 0.2936290504086719 0  0.007756726855498133 0.253726523067807 0  0.2816091581197124 -0.4531847002458751 0  0.002693579241951911 -0.4452927028974097 0  0.2614770372227774 0.3432624384800261 0  0.2905620892368345 0.2263682042801985 0  -0.2876366597373845 0.2178464403043631 0  0.2807413030307
[...]
<PointData  Vectors="f_44"> 
<DataArray  type="Float64"  Name="f_44"  NumberOfComponents="3" format="ascii">-7.5376532713262116e-03 1.9183673469387758e-01 0.0000000000000000e+00  -1.3175648985444956e-04 2.5361639267527106e-04 0.0000000000000000e+00  1.0837584863125250e-04 2.2653818178001330e-04 0.0000000000000000e+00  -7.8692539839592922e-03 1.9183673469387758e-01 0.0000000000000000e+00  0.0000000000000000e+00 0.0000000000000000e+00 0.0000000000000000e+00  0.0000000000000000e+00 0.0000000000000000e+00 0.0000000000000000e+00  0.0000000000000000e+00 0.0000000000000000e+00 0.0000000000000000e+00  0.0000000000000000e+00 0.0000000000000000e+00 0.0000000000000000e+00  0.0000000000000000e+00 0.0000000000000000e+00 0.0000000000000000e+00  0.0000000000000000e+00 0.0000000000000000e+00 0.0000000000000000e+00  0.0000000000000000e+00 0.0000000000000000e+00 0.0000000000000000e+00  0.0000000000000000e+00 0.0000000000000000e+00 0.0000000000000000e+00  0.0000000000000000e+00 0.0000000000000000e+00 0.0000000000000000e+00  0.0000000000000000e+00 0.0000000000000000e+00 0.0000000000000000e+00  0.0000000000000000e+00 0.0000000000000000e+00 0.0000000000000000e+00  0.0000000000000000e+00 0.0000000000000000e+00 0.0000000000000000e+00  0.0000000000000000e+00 0.0000000000000000e+00 0.0000000000000000e+00  0.0000000000000000e+00 0.0000000000000000e+00 0.0000000000000000e+00  0.0000000000000000e+00 0.0000000000000000e+00 0.0000000000000000e+00  0.0000000000000000e+00 0.0000000000000000e+00 0.0000000000000000e+00  0.0000000000000000e+00 0.0000000000000000e+00 0.0000000000000000e+00  0.0000000000000000e+00 0.0000000000000000e+00 0.0000000000000000e+00  0.0000000000000000e+00 0.0000000000000000e+00 0.0000000000000000e+00  0.0000000000000000e+00 0.0000000000000000e+00 0.0000000000000000e+00  0.0000000000000000e+00 0.0000000000000000e+00 0.0000000000000000e+00  0.0000000000000000e+00 0.0000000000000000e+00 0.0000000000000000e+00  0.0000000000000000e+00 0.0000000000000000e+00 0.0000000000000000e+00  0.0000000000000000e+00 0.0000000000000000e+00 0.0000000000000000e+00  0.0000000000000000e+00 0.0000000000000000e+00 0.0000000000000000e+00  0.0000000000000000e+00 0.0000000000000000e+00 0.0000000000000000e+00  0.0000000000000000e+00 0.0000000000000000e+00 0.0000000000000000e+00  0.0000000000000000e+00 0.0000000000000000e+00 0.0000000000000000e+00  0.0000000000000000e+00 0.0000000000000000e+00 0.0000000000000000e+00  0.0000000000000000e+00 0.0000000000000000e+00 0.0000000000000000e+00  0.0000000000000000e+00 0.0000000000000000e+00 0.0000000000000000e+00  0.0000000000000000e+00 0.0000000000000000e+00 0.0000000000000000e+00  0.0000000000000000e+00 0.0000000000000000e+00 0.0000000000000000e+00  0.0000000000000000e+00 0.0000000000000000e+00 0.0000000000000000e+00  0.0000000000000000e+00 0.0000000000000000e+00 0.0000000000000000e+00  0.0000000000000000e+00 0.0000000000000000e+00 0.0000000000000000e+00  0.0000000000000000e+00 0.0000000000000000e+00 0.0000000000000000e+00  0.0000000000000000e+00 0.0000000000000000e+00 0.0000000000000000e+00  0.0000000000000000e+00 0.0000000000000000e+00 0.0000000000000000e+00  0.0000000000000000e+00 0.0000000000000000e+00 0.0000000000000000e+00  0.0000000000000000e+00 0.0000000000000000e+00 0.0000000000000000e+00  0.0000000000000000e+00 0.0000000000000000e+00 0.0000000000000000e+00  0.0000000000000000e+00 0.0000000000000000e+00 0.0000000000000000e+00  0.0000000000000000e+00 0.0000000000000000e+00 0.0000000000000000e+00  0.0000000000000000e+00 0.0000000000000000e+00 0.0000000000000000e+00  0.0000000000000000e+00 0.0000000000000000e+00 0.0000000000000000e+00  0.0000000000000000e+00 0.0000000000000000e+00 0.0000000000000000e+00  0.0000000000000000e+00 0.0000000000000000e+00 0.0000000000000000e+00  0.0000000000000000e+00 0.0000000000000000e+00 0.0000000000000000e+00  0.0000000000000000e+00 0.0000000000000000e+00 0.0000000000000000e+00  0.0000000000000000e+00 0.0000000000000000e+00 0.0000000000000000e+00  0.0000000000000000e+00 0.0000000000000000e+00 0.0000000000000000e+00  0.0000000000000000e+00 0.0000000000000000e+00 0.0000000000000000e+00  0.0000000000000000e+00 0.0000000000000000e+00 0.0000000000000000e+00  0.0000000000000000e+00 0.0000000000000000e+00 0.0000000000000000e+00  0.0000000000000000e+00 0.0000000000000000e+00 0.0000000000000000e+00  0.0000000000000000e+00 0.0000000000000000e+00 0.0000000000000000e+00  0.0000000000000000e+00 0.0000000000000000e+00 0.0000000000000000e+00  0.0000000000000000e+00 0.0000000000000000e+00 0.0000000000000000e+00  -1.1275505113906402e-05 4.3757550769752235e-05 0.0000000000000000e+00  -7.6929579917909890e-03 1.9183673469387758e-01 0.0000000000000000e+00  4.9527064056838713e-05 4.1164634973834326e-04 0.0000000000000000e+00  -5.7128737051869433e-05 3.7704068055759079e-04 0.0000000000000000e+00  9.1602677620300184e-05 1.1376136850013955e-04 0.0000000000000000e+00  -7.7995650764302758e-03 1.9183673469387758e-01 0.0000000000000000e+00  -8.2961653692584410e-03 1.9112595819259570e-01 0.0000000000000000e+00  3.7790162175457012e-05 2.4340892272133098e-04 0.0000000000000000e+00  -7.6095903525873658e-03 1.9183673469387758e-01 0.0000000000000000e+00  -1.1506613395805248e-04 1.2762558253016126e-04 0.0000000000000000e+00  -4.9795130771298867e-05 2.7044614916179167e-04 0.0000000000000000e+00  -3.8933600989979663e-03 1.8759853148832176e-01 0.0000000000000000e+00  -7.8297672406169062e-03 1.9164558295314410e-01 0.0000000000000000e+00  4.6532328801550739e-05 1.2575686772364078e-04 0.0000000000000000e+00  -7.5331471319959797e-03 1.9160703163371987e-01 0.0000000000000000e+00  -5.9689957328048144e-05 1.4487493547199083e-04 0.0000000000000000e+00  -7.6344943460564564e-03 1.9174948000551142e-01 0.0000000000000000e+00  2.1928808736332586e-05 2.0377585764866656e-04 0.0000000000000000e+00  -7.7653084081004374e-03 1.9171855887642419e-01 0.0000000000000000e+00  -1.3232445410348454e-04 3.2748797182245221e-04 0.0000000000000000e+00  -2.9520147094638538e-05 2.2462215075822836e-04 0.0000000000000000e+00  -4.1150702530336128e-05 5.2915967495030804e-05 0.0000000000000000e+00  2.6387234874803085e-05 4.7170217262002819e-05 0.0000000000000000e+00  1.0504569530151531e-04 3.3451562895330444e-04 0.0000000000000000e+00  -7.5057034516376533e-03 1.9166976955758377e-01 0.0000000000000000e+00  6.6524160895916153e-05 2.2699371934511623e-04 0.0000000000000000e+00  -1.3137045289767337e-04 1.9662450972702251e-04 0.0000000000000000e+00  -7.8792214465854011e-03 1.9171538000257857e-01 0.0000000000000000e+00  -7.5776168507980697e-03 1.9183673469387758e-01 0.0000000000000000e+00  1.0787280077732286e-04 1.7588401643346203e-04 0.0000000000000000e+00  -8.3744784866584515e-05 2.5400331669752323e-04 0.0000000000000000e+00  -7.8368930585180473e-03 1.9183673469387758e-01 0.0000000000000000e+00  -5.8558711923843673e-06 2.0689145853722798e-05 0.0000000000000000e+00  -7.6981120247266244e-03 1.9172263488630625e-01 0.0000000000000000e+00  1.7144403120994539e-04 5.4431347896170964e-04 0.0000000000000000e+00  -7.1962064839718243e-05 6.8535273473483557e-05 0.0000000000000000e+00  -1.3736433018906642e-05 3.2025591449880272e-04 0.0000000000000000e+00  -1.7329041035107608e-04 4.9233282713610099e-04 0.0000000000000000e+00  5.0030728126142620e-06 2.9204410463225868e-04 0.0000000000000000e+00  4.9151668945930906e-05 6.1827755108612549e-05 0.0000000000000000e+00  -7.6434153847183073e-03 1.9183673469387758e-01 0.0000000000000000e+00  -7.7507567125097657e-03 1.9183673469387758e-01 0.0000000000000000e+00  -3.0061911534318467e-05 2.6289871422524835e-04 0.0000000000000000e+00  -7.5485713045348492e-03 1.9172705398036879e-01 0.0000000000000000e+00  1.9868250762647843e-05 2.9322257665329184e-04 0.0000000000000000e+00  -7.5972495575653189e-03 1.9175902576308451e-01 0.0000000000000000e+00  6.6468448707735926e-05 1.7707504889433526e-04 0.0000000000000000e+00  -8.3999878067421053e-05 1.9841847775258308e-04 0.0000000000000000e+00  -7.8501390149281983e-03 1.9173975658118753e-01 0.0000000000000000e+00  -3.7975169423265552e-05 6.3050454154011342e-05 0.0000000000000000e+00  -3.9326743225861771e-05 1.1689495414694426e-04 0.0000000000000000e+00  9.3018855438757885e-05 4.0804089664691723e-04 0.0000000000000000e+00  4.2194073213659896e-05 1.9599430791149172e-04 0.0000000000000000e+00  -7.3606631686979323e-03 1.9121196377968666e-01 0.0000000000000000e+00  -1.3832336287503128e-04 2.3709594944836744e-04 0.0000000000000000e+00  3.1680196049572560e-05 1.0410503647279857e-04 0.0000000000000000e+00  2.7835115895619436e-05 5.3096179156202536e-05 0.0000000000000000e+00  -5.2593521569246427e-05 2.1991420863720073e-04 0.0000000000000000e+00  -7.0594295745470006e-05 1.1171332556661356e-04 0.0000000000000000e+00  -7.8147815934570333e-03 1.9174886792574841e-01 0.0000000000000000e+00  -7.8016447772076402e-03 1.9128683406485969e-01 0.0000000000000000e+00  6.1524139245440742e-05 1.2060061877064398e-04 0.0000000000000000e+00  1.2195814615394035e-04 2.0137758278694929e-04 0.0000000000000000e+00  2.4612499448696670e-04 5.3886651382384940e-04 0.0000000000000000e+00  -7.8592957005481131e-03 1.9134221013479938e-01 0.0000000000000000e+00  2.4105117147811854e-05 1.8519500831456947e-04 0.0000000000000000e+00  -2.0022031741744943e-05 2.4340841211186172e-05 0.0000000000000000e+00  1.3832294865562404e-05 1.3011520768142524e-04 0.0000000000000000e+00  -8.4145085706671119e-03 1.8992607709392570e-01 0.0000000000000000e+00  -5.5470695764675877e-05 1.8402732047949450e-04 0.0000000000000000e+00  1.1003649138084851e-05 2.1083752453604644e-05 0.0000000000000000e+00  -2.2152927261319503e-05 1.3362990755285854e-04 0.0000000000000000e+00  -7.7795511896113275e-03 1.9177859693968050e-01 0.0000000000000000e+00  -2.3220372623557225e-05 3.6319695221669956e-05 0.0000000000000000e+00  5.2780233745284473e-05 8.0070265662841237e-05 0.0000000000000000e+00  1.3273303301824721e-05 3.9137861111721257e-05 0.0000000000000000e+00  -9.3779614810360890e-05 3.6639178720974014e-04 0.0000000000000000e+00  -7.7274122707184359e-03 1.9177647479394350e-01 0.0000000000000000e+00  -7.6649135913974126e-03 1.9178890001305762e-01 0.0000000000000000e+00  -7.8884506535243613e-03 1.9168833357143397e-01 0.0000000000000000e+00  -6.7823551282839600e-05 2.3526300680468357e-04 0.0000000000000000e+00  -9.6670114868053255e-05 1.5919896206941295e-04 0.0000000000000000e+00  5.3377705971101674e-05 2.1110151165308009e-04 0.0000000000000000e+00  -7.5883417323737486e-03 1.9178975785965360e-01 0.0000000000000000e+00  -7.4741014342019950e-03 1.9164093122566481e-01 0.0000000000000000e+00  -7.5523306508983807e-03 1.9176956183056776e-01 0.0000000000000000e+00  1.0042867806306690e-04 4.7321971644382499e-04 0.0000000000000000e+00  -2.0797939954411127e-05 3.3012747832635763e-04 0.0000000000000000e+00  8.5683318219286451e-05 2.2623164359033757e-04 0.0000000000000000e+00  -1.3206137773947549e-04 2.2689075928301953e-04 0.0000000000000000e+00  -7.8714843979387529e-03 1.9177762706755724e-01 0.0000000000000000e+00  -7.6255289165861320e-03 1.9183673469387758e-01 0.0000000000000000e+00  -5.4940561135559611e-06 3.0729133127521853e-04 0.0000000000000000e+00  4.2199270764153571e-05 8.4545667281750455e-05 0.0000000000000000e+00  -7.7992073203992738e-03 1.9169974874697215e-01 0.0000000000000000e+00  2.6668861370293553e-05 2.4038877929376476e-04 0.0000000000000000e+00  -6.6511064402346873e-05 7.9701552163001927e-05 0.0000000000000000e+00  -2.8392091501284648e-04 5.9338875535532021e-04 0.0000000000000000e+00  -3.3444934369293987e-05 2.9051783441143975e-04 0.0000000000000000e+00  -1.4770785282526516e-05 1.6567227093101282e-04 0.0000000000000000e+00  5.6083540246325714e-05 1.6016055176016551e-04 0.0000000000000000e+00  -3.5694116118879039e-05 2.6326866381022715e-04 0.0000000000000000e+00  -4.0060391161875503e-06 2.7326555447840136e-04 0.0000000000000000e+00  -1.9545132931462773e-04 4.3011591217613862e-04 0.0000000000000000e+00  -7.6245108611600210e-03 1.9178948956908778e-01 0.0000000000000000e+00  1.6771619417792360e-04 3.3800919025705399e-04 0.0000000000000000e+00  -6.6429479240068322e-05 1.9442153875838070e-04 0.0000000000000000e+00  7.7581794912195016e-05 3.8481245634662108e-04 0.0000000000000000e+00  -7.4947536741029304e-03 1.9161599625102591e-01 0.0000000000000000e+00  -7.4645430353068544e-05 1.5323594253774888e-04 0.0000000000000000e+00  -7.8197631420853994e-03 1.9183673469387755e-01 0.0000000000000000e+00  8.0291990325888549e-05 1.5525096863992988e-04 0.0000000000000000e+00  -7.8611396173699413e-03 1.9168067053577881e-01 0.0000000000000000e+00  1.7795504933981133e-04 4.6290556956554479e-04 0.0000000000000000e+00  1.0864627587386836e-04 2.0290524834655423e-04 0.0000000000000000e+00  -1.0595956154975663e-04 2.5332885328727622e-04 0.0000000000000000e+00  -7.8525050475217514e-03 1.9183673469387758e-01 0.0000000000000000e+00  5.2389390303692919e-05 1.7100621135130917e-04 0.0000000000000000e+00  -5.0744608142050058e-05 7.9833372037357077e-05 0.0000000000000000e+00  3.5984826710269740e-05 1.6426875841204933e-04 0.0000000000000000e+00  -7.8295308246466837e-03 1.9178190500141151e-01 0.0000000000000000e+00  -4.4934074140996768e-05 1.8325589836740383e-04 0.0000000000000000e+00  -1.9527701386586125e-04 3.6966111263901099e-04 0.0000000000000000e+00  8.2239185999804639e-05 1.9945514698786152e-04 0.0000000000000000e+00  -7.5781138485468448e-03 1.9169706350922788e-01 0.0000000000000000e+00  -1.0576892566089928e-04 2.1222865535980661e-04 0.0000000000000000e+00  -7.8536676692863606e-03 1.9177694679005033e-01 0.0000000000000000e+00  -1.0712958847647228e-05 2.1695810217963401e-04 0.0000000000000000e+00  -2.1061465752506478e-06 9.7928180828103130e-06 0.0000000000000000e+00  2.3336709061671189e-05 4.9379705969265132e-05 0.0000000000000000e+00  -7.5717007379140474e-03 1.9174014861509023e-01 0.0000000000000000e+00  -2.2583641585436282e-05 3.0582516453364788e-05 0.0000000000000000e+00  9.6146575340241582e-06 2.7880986211715209e-05 0.0000000000000000e+00  -9.3238892013825154e-05 1.3688103549509836e-04 0.0000000000000000e+00  3.4983911007659454e-05 5.4928668183443166e-05 0.0000000000000000e+00  7.0955374359160141e-05 8.8520785056298763e-05 0.0000000000000000e+00  -4.7240216012141742e-05 5.3918905281531305e-05 0.0000000000000000e+00  -7.7144498106137801e-03 1.9155593083795019e-01 0.0000000000000000e+00  -2.7850393303336547e-05 5.6324114416838720e-05 0.0000000000000000e+00  -6.5829798315006992e-05 1.3015494290584986e-04 0.0000000000000000e+00  2.8159238839125747e-04 6.3496313755376449e-04 0.0000000000000000e+00  -7.6627590142765356e-03 1.9173711394529638e-01 0.0000000000000000e+00  -7.7380390068684463e-03 1.9169152501355907e-01 0.0000000000000000e+00  -7.6941350244358227e-03 1.9178250133543628e-01 0.0000000000000000e+00  -7.8358676895185116e-03 1.9171137534334470e-01 0.0000000000000000e+00  -4.5807512784214373e-05 3.2906441748228193e-04 0.0000000000000000e+00  3.4177052129025049e-06 2.0788754328112286e-04 0.0000000000000000e+00  -7.3581159200090393e-05 2.9291324910331117e-04 0.0000000000000000e+00  5.6904702714670276e-05 1.4275078379247702e-04 0.0000000000000000e+00  2.3515203575121632e-05 2.6313093456082682e-04 0.0000000000000000e+00  1.2803921628862409e-05 3.6051741299121271e-04 0.0000000000000000e+00  -7.4406056480853071e-03 1.9156308958701238e-01 0.0000000000000000e+00  -9.6644875647578743e-05 9.5085924531880566e-05 0.0000000000000000e+00  -7.5938712455381266e-03 1.9183673469387758e-01 0.0000000000000000e+00  -1.2633024380309118e-04 1.6270158241915789e-04 0.0000000000000000e+00  -6.5613179074885573e-05 2.5885726211460750e-04 0.0000000000000000e+00  -7.9066453377022086e-03 1.9163589887155000e-01 0.0000000000000000e+00  -7.6657324480595909e-03 1.9183673469387758e-01 0.0000000000000000e+00  -1.0665892171462732e-04 4.3141250030394893e-04 0.0000000000000000e+00  2.0117309686461527e-05 4.7559193276675185e-05 0.0000000000000000e+00  7.3455030264578652e-05 8.4738584212273163e-05 0.0000000000000000e+00  1.0285228072021287e-04 1.4529322630270840e-04 0.0000000000000000e+00  -7.7764640760305684e-03 1.9183673469387758e-01 0.0000000000000000e+00  -7.7224200865447729e-03 1.9183673469387760e-01 0.0000000000000000e+00  5.1170590618434754e-05 2.3187832764117022e-04 0.0000000000000000e+00  -7.5596310528588482e-03 1.9183673469387755e-01 0.0000000000000000e+00  -7.5302567175587537e-03 1.9175476296265648e-01 0.0000000000000000e+00  -4.2812314252636360e-05 5.0935358519580979e-05 0.0000000000000000e+00  -7.5708589088692869e-03 1.9178270485269033e-01 0.0000000000000000e+00  2.0170428131981735e-05 7.4443791756904131e-05 0.0000000000000000e+00  -6.2933813137766662e-05 1.3438570744799729e-04 0.0000000000000000e+00  -7.5276313464849465e-03 1.9170663153310827e-01 0.0000000000000000e+00  8.5750074382119981e-05 1.0483235777300137e-04 0.0000000000000000e+00  -2.0760006197255407e-05 2.6794300238021729e-05 0.0000000000000000e+00  -8.3978561059549881e-05 2.3005936328584299e-04 0.0000000000000000e+00  3.6374786855187568e-05 9.1203798390124155e-05 0.0000000000000000e+00  -3.1834980508704801e-06 2.9448205660818098e-05 0.0000000000000000e+00  -1.1611982859866714e-04 2.5857564820018801e-04 0.0000000000000000e+00  -7.7557720318866983e-03 1.9177223807338672e-01 0.0000000000000000e+00  -4.1941088482725491e-06 1.1739882752685889e-04 0.0000000000000000e+00  -7.6113459220699545e-03 1.9174632800994662e-01 0.0000000000000000e+00  -2.9866481034855467e-04 5.8908428660723895e-04 0.0000000000000000e+00  -2.4744387207903299e-05 7.6447075547494430e-05 0.0000000000000000e+00  -7.8650408221361042e-03 1.9172864968338882e-01 0.0000000000000000e+00  -7.6102646421263454e-03 1.9179924191366318e-01 0.0000000000000000e+00  -3.5348370578814489e-05 4.8656747612504418e-05 0.0000000000000000e+00  -3.8745054179429428e-04 7.2450255180147010e-04 0.0000000000000000e+00  -7.6348849696455607e-03 1.9167685356106073e-01 0.0000000000000000e+00  1.5843286611702291e-05 2.5435321216443302e-05 0.0000000000000000e+00  -5.1837124196116992e-05 1.0187192956571485e-04 0.0000000000000000e+00  2.5858678651579397e-05 3.5161997581439338e-04 0.0000000000000000e+00  5.3120726717399561e-05 3.0033506368737611e-04 0.0000000000000000e+00  -4.2649792791156661e-05 9.3489990614110109e-05 0.0000000000000000e+00  1.9657386611972652e-04 3.6961796443852040e-04 0.0000000000000000e+00  -7.7881024035759460e-03 1.9166853209929563e-01 0.0000000000000000e+00  -5.0373166377896459e-05 1.4465723510061009e-04 0.0000000000000000e+00  2.9679740657946082e-05 5.4099065320120479e-05 0.0000000000000000e+00  2.6864682292412295e-05 1.4558742349486776e-04 0.0000000000000000e+00  6.6125875219137691e-05 2.0724548485115792e-04 0.0000000000000000e+00  -7.6424278468197031e-03 1.9178504088311729e-01 0.0000000000000000e+00  4.3946786701606564e-05 1.5546588326803261e-04 0.0000000000000000e+00  4.2558413997027687e-05 2.2275223933215397e-04 0.0000000000000000e+00  -5.4722601355333289e-05 2.4730386217178366e-04 0.0000000000000000e+00  -3.4375763037173487e-05 1.6565174488875734e-04 0.0000000000000000e+00  -7.8524328166501654e-03 1.9152487016840936e-01 0.0000000000000000e+00  3.1631150190278794e-04 6.3275058304991126e-04 0.0000000000000000e+00  3.1219213035830969e-04 7.3547747416170491e-04 0.0000000000000000e+00  -8.5517533595405167e-05 1.1053717210641468e-04 0.0000000000000000e+00  -7.8181939636659363e-03 1.9163900740814474e-01 0.0000000000000000e+00  5.1687410840504761e-06 9.2153619338086103e-05 0.0000000000000000e+00  7.8384797839426483e-05 1.2723212570572249e-04 0.0000000000000000e+00  -8.7273310878761193e-06 3.6199723121606082e-05 0.0000000000000000e+00  -7.8180495553966268e-03 1.9170261342205236e-01 0.0000000000000000e+00  -6.5592069112808892e-05 7.8078761067220195e-04 0.0000000000000000e+00  1.8671703789265246e-04 3.2406548535659525e-04 0.0000000000000000e+00  -7.8115428566030596e-03 1.9179680732860130e-01 0.0000000000000000e+00  5.8046376635604431e-05 1.0750742420435110e-04 0.0000000000000000e+00  -7.4385847098579708e-03 1.9130770167440200e-01 0.0000000000000000e+00  1.8064164894995106e-04 4.0948378606277854e-04 0.0000000000000000e+00  -5