<?xml version="1.0"?>
<VTKFile type="UnstructuredGrid"  version="0.1"  >
<UnstructuredGrid>
<Piece  NumberOfPoints="5173" NumberOfCells="9966">
<Points>
<DataArray  type="Float64"  NumberOfComponents="3"  format="ascii">-0.5 0.5 0  -0.5 -0.5 0  0.5 -0.5 0  0.5 0.5 0  0.1998669600420274 0.02125869712947308 0  0.201 0 0  0.1998669600420274 -0.02125869712947312 0  0.1964806779635733 -0.04227652472592507 0  0.1908795216936763 -0.06281534240438978 0  0.1831269545709826 -0.08264243715367564 0  0.1733108162787611 -0.1015331600677681 0  0.1615423275861927 -0.1192734717077003 0  0.1479548301726135 -0.1356623672539232 0  0.1327022758130076 -0.1505141539712278 0  0.1159574820428814 -0.1636605551816338 0  0.09791017406652992 -0.1749526169063923 0  0.07876483509466403 -0.1842623955740826 0  0.05873838946792427 -0.1914844076724011 0  0.03805774481742277 -0.1965368249185042 0  0.01695722111061653 -0.1993624014061501 0  -0.004324104287555032 -0.1999291222246905 0  -0.02554510545674447 -0.1982305662008014 0  -0.04646533997422303 -0.194285978652942 0  -0.06684777322360611 -0.1881400533342067 0  -0.08646146409177112 -0.1798624260342438 0  -0.1050841816239485 -0.1695468855779342 0  -0.1225049229892384 -0.1573103111605285 0  -0.138526304226997 -0.143291348059663 0  -0.1529667966859812 -0.127648836728964 0  -0.165662783816503 -0.1105600130722386 0  -0.1764704150113143 -0.0922185002898652 0  -0.1852672354904677 -0.07283211505056446 0  -0.1919535737629032 -0.05262051284550421 0  -0.1964536709442689 -0.03181269920381437 0  -0.1987165391353524 -0.0106444349684357 0  -0.1987165391353524 0.01064443496843575 0  -0.1964536709442689 0.03181269920381442 0  -0.1919535737629032 0.05262051284550433 0  -0.1852672354904677 0.07283211505056443 0  -0.1764704150113143 0.09221850028986515 0  -0.165662783816503 0.1105600130722387 0  -0.1529667966859812 0.1276488367289641 0  -0.1385263042269969 0.1432913480596631 0  -0.1225049229892383 0.1573103111605285 0  -0.1050841816239485 0.1695468855779342 0  -0.08646146409177108 0.1798624260342438 0  -0.06684777322360606 0.1881400533342067 0  -0.04646533997422297 0.194285978652942 0  -0.02554510545674437 0.1982305662008015 0  -0.004324104287554939 0.1999291222246905 0  0.01695722111061662 0.19936240140615 0  0.03805774481742286 0.1965368249185042 0  0.05873838946792424 0.1914844076724011 0  0.07876483509466414 0.1842623955740826 0  0.09791017406653006 0.1749526169063922 0  0.1159574820428814 0.1636605551816338 0  0.1327022758130078 0.1505141539712277 0  0.1479548301726135 0.1356623672539232 0  0.1615423275861927 0.1192734717077003 0  0.1733108162787612 0.101533160067768 0  0.1831269545709827 0.08264243715367564 0  0.1908795216936763 0.06281534240438975 0  0.1964806779635734 0.04227652472592486 0  0 -0.5 0  0 0.5 0  -0.5 0 0  0.5 0 0  0.25 -0.5 0  0.25 0.5 0  0.5 0.25 0  0.5 -0.25 0  -0.25 0.5 0  -0.25 -0.5 0  -0.5 -0.25 0  -0.5 0.25 0  0.2918258229480683 0.2918258229480682 0  0.2865867850624828 -0.2932931940421196 0  -0.2962949893701896 0.274449924397287 0  -0.2913160373738303 -0.2913160373738304 0  -0.125 0.3636995408959175 0  0.3637738468862107 -0.1261303957107176 0  0.125 0.3665964626830409 0  0.3640958654762797 0.1232161970438493 0  -0.3624000654276585 -0.1218337159209422 0  -0.125 -0.3668200952157802 0  0.125 -0.3712838880907947 0  -0.3600991828528437 0.1089843577122111 0  -0.5 0.375 0  0.5 -0.375 0  -0.375 -0.5 0  0.5 0.375 0  -0.375 0.5 0  0.375 -0.5 0  -0.5 -0.375 0  0.375 0.5 0  0.0006860903712339345 -0.3306266888645853 0  -0.000109901520948898 0.3746323380112415 0  -0.5 0.125 0  -0.125 -0.5 0  -0.5 -0.125 0  0.5 0.125 0  0.5 -0.125 0  0.125 -0.5 0  -0.125 0.5 0  0.125 0.5 0  0.3748576787807123 -0.001471205609738957 0  -0.3738828512115154 0.3738828512115154 0  -0.3827617049088436 -0.006210238480157219 0  -0.2429234745416257 0.3810213699917807 0  0.3769180353829246 -0.3769180353829246 0  -0.3777687524152424 -0.3777687524152424 0  0.3780704009792175 0.3780704009792175 0  -0.1776483227107271 -0.2618630460446135 0  -0.2604485542051718 -0.1787215021996984 0  -0.1798547561877991 0.2599748505350166 0  0.3864703130478905 -0.2380123189195306 0  0.1785319646943122 0.2625417448451246 0  0.261692611046212 0.1791168901036931 0  0.2607171500730768 -0.1799460669666111 0  0.1733970740599892 -0.2651674952354912 0  -0.3880520258539732 -0.2322407641539351 0  -0.2352016482221373 -0.388638232840279 0  0.2734696242623063 0.3964265996649794 0  0.3883795026617865 0.233417864889234 0  0.2738670858792859 -0.3976331321261044 0  -0.2491638954018168 0.1780101911767213 0  -0.3926686215746083 0.2165776265637375 0  0.07109213498061834 0.2869023807262104 0  -0.2934183534017453 0.03147305416145122 0  -0.08119265072200343 -0.2826195781877594 0  0.2836913223256923 -0.07709296110799269 0  -0.0558729689268372 0.2928347535333279 0  0.2830965643121598 0.07693076420704528 0  0.08122371629649494 -0.2825469282280794 0  -0.2767834230915197 -0.08819590430941976 0  0.1875 0.4332982313415205 0  -0.04303186331845871 -0.4151376431551652 0  0.190970733019215 -0.4322714131851434 0  0.06249999999999999 -0.4356419440453974 0  0.4328061849987423 0.06633847947711793 0  0.0664712649494027 0.4332982313415205 0  -0.06249999999999998 0.4373709104419552 0  0.4341377633941729 0.309372588857957 0  -0.4374372828954266 -0.3125 0  -0.3104572497507675 -0.4353019888851174 0  0.4374701104890421 -0.3125 0  -0.3116291712721947 0.4366347031852421 0  -0.4374901042687089 0.3125 0  -0.4363926600558238 0.4363926600558238 0  -0.5 0.0625 0  0.5 -0.0625 0  0.5 -0.4375 0  -0.4375 -0.5 0  0.5 0.4375 0  -0.1875 0.5 0  -0.4323246583268963 -0.07454303397230311 0  0.2154950463309389 -0.3375719358844427 0  0.206977802238796 0.342973363124546 0  0.4322596267199844 -0.1704803839098939 0  -0.1690769129391571 -0.4334100476078901 0  0.5 0.1875 0  -0.5 -0.1875 0  0.2967149326504868 -2.965984816150069e-05 0  -0.2579082457853068 0.1006999711688991 0  -0.4261732609354634 -0.1652001701086123 0  0.4197274728231854 -0.06828306080156128 0  0.4316260558094222 0.15625 0  -0.1765935890523967 0.4225213035878151 0  -0.326101012911042 0.1780020696215199 0  -0.3639018823524438 -0.3051829074366289 0  -0.4219359613016062 0.06132313683084987 0  -0.368871881750981 0.2861301036496543 0  -0.3031928482819811 -0.3630024307590357 0  0.3125 0.5 0  0.3355547846059301 -0.437829382399898 0  0.3620936304880762 0.3078025934392096 0  -0.4265460575686851 0.1475964618934338 0  0.4375 -0.5 0  -0.5 -0.4375 0  0.4375 0.5 0  0.3587983613906559 -0.3058906763528768 0  -0.1889171018677358 -0.3331988582480375 0  0.3319769361362775 -0.1908238194547704 0  0.3337713745363715 0.4328433800405805 0  -0.3319644446835826 -0.1870886352472088 0  0.3329253892881625 0.1878611701133833 0  0.4281511341447153 -0.4281511341447153 0  -0.232840147849867 0.3093215053326949 0  -0.40625 -0.4395608850352885 0  0.428794887401249 0.428794887401249 0  -0.3380841551254475 -0.05794700007688498 0  0.008054260670409629 -0.2648994211243904 0  0.1899220001124564 -0.1947534447033338 0  -0.3080416507322476 0.3708200057439822 0  -0.06307278823153059 -0.3455430469652901 0  0.06447087227249242 -0.3459780260685607 0  0.1914876772934198 0.1922953616824615 0  0.1267822167193652 -0.4357424153550361 0  -0.1100367963981227 0.2468729543145758 0  -0.1040301628609493 -0.4382371732506554 0  0.008496887133013969 0.3088587185741126 0  -0.1939711685411953 -0.1799889819170536 0  0.1169089524024441 0.2383640108781663 0  -0.5 0.1875 0  -0.06301873836730842 0.3744639870876723 0  0.0612272731888486 0.3516549422231338 0  0.0001842875295821901 0.4373159592812666 0  0.315570863666392 0.3499038328432952 0  0.43737589643705 0.003767781375474147 0  0.3480437072584214 -0.06190943679164183 0  0.3704548124556613 0.06095691071954262 0  0.3139725644615085 -0.3495769689516506 0  0.5 -0.1875 0  -0.5 -0.0625 0  -0.5 0.3125 0  -0.1875 -0.5 0  -0.3125 0.5 0  -0.3125 -0.5 0  -0.5 -0.3125 0  0.5 0.3125 0  -0.0625 0.5 0  0.5 0.0625 0  0.0625 -0.5 0  0.1875 -0.5 0  0.3125 -0.5 0  0.1875 0.5 0  0.0625 0.5 0  0.5 -0.3125 0  -0.4375 0.5 0  -0.5 0.4375 0  -0.0625 -0.5 0  -0.3740130545720807 0.4376162026208867 0  0.2356432480937504 -0.1203529309141897 0  0.2354253261260549 0.120280228505195 0  -0.4358389466402443 0.374436564627095 0  -0.1837098359759774 0.1929485386776155 0  -0.1210077767998366 -0.2331474219302516 0  -0.4388230181844467 -0.3736756227341544 0  0.2385916116983025 -0.2446215854929363 0  0.01618154697154811 -0.392205807603664 0  0.3033224724982568 0.1345019962362828 0  0.1269856324747013 0.4273682536406486 0  -0.2618767198442009 -0.02513308225372456 0  -0.1869024341550137 0.3523407916866587 0  0.4460792014197047 0.2150519456240759 0  -0.228067921023645 -0.1261420173261541 0  0.4375111104956734 0.3693541778847931 0  -0.2344434115929863 0.441225502334267 0  -0.1349409233725989 -0.3081519167298867 0  0.2361921270004774 0.236858231392783 0  -0.1134625589296566 0.3058057213872041 0  0.1364902237265291 -0.2193600350069504 0  -0.231009496195906 -0.2899916451544192 0  -0.4420301468408164 -0.0153626464053197 0  -0.3638407636123014 0.04989392276612995 0  -0.2281634567999949 -0.2293698735254731 0  -0.2404608239114909 0.2480193450766527 0  0.1548586079872366 0.3161601351946364 0  -0.2905808065687782 -0.2309892133488608 0  0.1583090638615736 -0.3223807786382032 0  0.3037640590628244 -0.1367963242859415 0  0.441474411355182 -0.3710236808063671 0  -0.1184457037417267 0.4214861255011078 0  0.3280783743867655 -0.2503846686276005 0  0.4421147536667354 -0.254616967737483 0  -0.4419160956032748 -0.2544205585064326 0  -0.3074463395544132 -0.1359279022829991 0  0.3366964226424555 0.256991018383815 0  -0.4508616135570574 0.21875 0  -0.3395120610056381 0.2372377549435862 0  -0.2261617732606898 -0.4465036260914809 0  0.2350726063974556 0.2936290504086719 0  0.007756726855498133 0.253726523067807 0  0.2816091581197124 -0.4531847002458751 0  0.002693579241951911 -0.4452927028974097 0  0.2614770372227774 0.3432624384800261 0  0.2905620892368345 0.2263682042801985 0  -0.2876366597373845 0.2178464403043631 0  0.2807413030307
[...]
<PointData  Vectors="f_44"> 
<DataArray  type="Float64"  Name="f_44"  NumberOfComponents="3" format="ascii">-7.6915849692487555e-03 1.9591836734693879e-01 0.0000000000000000e+00  -1.2421930368838825e-04 2.3932070257442518e-04 0.0000000000000000e+00  1.0270930971984056e-04 2.1444537643437993e-04 0.0000000000000000e+00  -8.0052266679117700e-03 1.9591836734693882e-01 0.0000000000000000e+00  0.0000000000000000e+00 0.0000000000000000e+00 0.0000000000000000e+00  0.0000000000000000e+00 0.0000000000000000e+00 0.0000000000000000e+00  0.0000000000000000e+00 0.0000000000000000e+00 0.0000000000000000e+00  0.0000000000000000e+00 0.0000000000000000e+00 0.0000000000000000e+00  0.0000000000000000e+00 0.0000000000000000e+00 0.0000000000000000e+00  0.0000000000000000e+00 0.0000000000000000e+00 0.0000000000000000e+00  0.0000000000000000e+00 0.0000000000000000e+00 0.0000000000000000e+00  0.0000000000000000e+00 0.0000000000000000e+00 0.0000000000000000e+00  0.0000000000000000e+00 0.0000000000000000e+00 0.0000000000000000e+00  0.0000000000000000e+00 0.0000000000000000e+00 0.0000000000000000e+00  0.0000000000000000e+00 0.0000000000000000e+00 0.0000000000000000e+00  0.0000000000000000e+00 0.0000000000000000e+00 0.0000000000000000e+00  0.0000000000000000e+00 0.0000000000000000e+00 0.0000000000000000e+00  0.0000000000000000e+00 0.0000000000000000e+00 0.0000000000000000e+00  0.0000000000000000e+00 0.0000000000000000e+00 0.0000000000000000e+00  0.0000000000000000e+00 0.0000000000000000e+00 0.0000000000000000e+00  0.0000000000000000e+00 0.0000000000000000e+00 0.0000000000000000e+00  0.0000000000000000e+00 0.0000000000000000e+00 0.0000000000000000e+00  0.0000000000000000e+00 0.0000000000000000e+00 0.0000000000000000e+00  0.0000000000000000e+00 0.0000000000000000e+00 0.0000000000000000e+00  0.0000000000000000e+00 0.0000000000000000e+00 0.0000000000000000e+00  0.0000000000000000e+00 0.0000000000000000e+00 0.0000000000000000e+00  0.0000000000000000e+00 0.0000000000000000e+00 0.0000000000000000e+00  0.0000000000000000e+00 0.0000000000000000e+00 0.0000000000000000e+00  0.0000000000000000e+00 0.0000000000000000e+00 0.0000000000000000e+00  0.0000000000000000e+00 0.0000000000000000e+00 0.0000000000000000e+00  0.0000000000000000e+00 0.0000000000000000e+00 0.0000000000000000e+00  0.0000000000000000e+00 0.0000000000000000e+00 0.0000000000000000e+00  0.0000000000000000e+00 0.0000000000000000e+00 0.0000000000000000e+00  0.0000000000000000e+00 0.0000000000000000e+00 0.0000000000000000e+00  0.0000000000000000e+00 0.0000000000000000e+00 0.0000000000000000e+00  0.0000000000000000e+00 0.0000000000000000e+00 0.0000000000000000e+00  0.0000000000000000e+00 0.0000000000000000e+00 0.0000000000000000e+00  0.0000000000000000e+00 0.0000000000000000e+00 0.0000000000000000e+00  0.0000000000000000e+00 0.0000000000000000e+00 0.0000000000000000e+00  0.0000000000000000e+00 0.0000000000000000e+00 0.0000000000000000e+00  0.0000000000000000e+00 0.0000000000000000e+00 0.0000000000000000e+00  0.0000000000000000e+00 0.0000000000000000e+00 0.0000000000000000e+00  0.0000000000000000e+00 0.0000000000000000e+00 0.0000000000000000e+00  0.0000000000000000e+00 0.0000000000000000e+00 0.0000000000000000e+00  0.0000000000000000e+00 0.0000000000000000e+00 0.0000000000000000e+00  0.0000000000000000e+00 0.0000000000000000e+00 0.0000000000000000e+00  0.0000000000000000e+00 0.0000000000000000e+00 0.0000000000000000e+00  0.0000000000000000e+00 0.0000000000000000e+00 0.0000000000000000e+00  0.0000000000000000e+00 0.0000000000000000e+00 0.0000000000000000e+00  0.0000000000000000e+00 0.0000000000000000e+00 0.0000000000000000e+00  0.0000000000000000e+00 0.0000000000000000e+00 0.0000000000000000e+00  0.0000000000000000e+00 0.0000000000000000e+00 0.0000000000000000e+00  0.0000000000000000e+00 0.0000000000000000e+00 0.0000000000000000e+00  0.0000000000000000e+00 0.0000000000000000e+00 0.0000000000000000e+00  0.0000000000000000e+00 0.0000000000000000e+00 0.0000000000000000e+00  0.0000000000000000e+00 0.0000000000000000e+00 0.0000000000000000e+00  0.0000000000000000e+00 0.0000000000000000e+00 0.0000000000000000e+00  0.0000000000000000e+00 0.0000000000000000e+00 0.0000000000000000e+00  0.0000000000000000e+00 0.0000000000000000e+00 0.0000000000000000e+00  0.0000000000000000e+00 0.0000000000000000e+00 0.0000000000000000e+00  0.0000000000000000e+00 0.0000000000000000e+00 0.0000000000000000e+00  0.0000000000000000e+00 0.0000000000000000e+00 0.0000000000000000e+00  0.0000000000000000e+00 0.0000000000000000e+00 0.0000000000000000e+00  -1.0393475984113285e-05 4.1348900176761126e-05 0.0000000000000000e+00  -7.8383606234802769e-03 1.9591836734693879e-01 0.0000000000000000e+00  4.6794150481323474e-05 3.8854081307962624e-04 0.0000000000000000e+00  -5.4086363307973709e-05 3.5671486902916552e-04 0.0000000000000000e+00  8.6849802160367964e-05 1.0767038994959089e-04 0.0000000000000000e+00  -7.9392630684134036e-03 1.9591836734693879e-01 0.0000000000000000e+00  -8.4097304655992473e-03 1.9524560828487536e-01 0.0000000000000000e+00  3.5820800232236052e-05 2.3039767373746501e-04 0.0000000000000000e+00  -7.7595017118172590e-03 1.9591836734693882e-01 0.0000000000000000e+00  -1.0845359478629364e-04 1.2044110336277488e-04 0.0000000000000000e+00  -4.6924027675527865e-05 2.5521746278722761e-04 0.0000000000000000e+00  -4.2541741050262649e-03 1.9192688512813175e-01 0.0000000000000000e+00  -7.9677283574237073e-03 1.9573727327780424e-01 0.0000000000000000e+00  4.4112029888619846e-05 1.1902863393101513e-04 0.0000000000000000e+00  -7.6873951501823471e-03 1.9570150827919033e-01 0.0000000000000000e+00  -5.6256965663427800e-05 1.3671788752948422e-04 0.0000000000000000e+00  -7.7830699809975116e-03 1.9583582434813887e-01 0.0000000000000000e+00  2.0749850721357218e-05 1.9284607892636793e-04 0.0000000000000000e+00  -7.9068034744973412e-03 1.9580654411263493e-01 0.0000000000000000e+00  -1.2520232153154321e-04 3.0995177388537287e-04 0.0000000000000000e+00  -2.7825830514532006e-05 2.1200760835623440e-04 0.0000000000000000e+00  -3.8711017102793055e-05 4.9934618681727688e-05 0.0000000000000000e+00  2.5112851473685524e-05 4.4644502957925608e-05 0.0000000000000000e+00  9.9165177392034564e-05 3.1581668081803261e-04 0.0000000000000000e+00  -7.6614144304274915e-03 1.9576078847892567e-01 0.0000000000000000e+00  6.3064621152400055e-05 2.1487636748413833e-04 0.0000000000000000e+00  -1.2385450332441601e-04 1.8555146538869611e-04 0.0000000000000000e+00  -8.0146221299158028e-03 1.9580366663690804e-01 0.0000000000000000e+00  -7.7293179548876909e-03 1.9591836734693879e-01 0.0000000000000000e+00  1.0223337309104121e-04 1.6647814874040401e-04 0.0000000000000000e+00  -7.8932114844396819e-05 2.3968640910214303e-04 0.0000000000000000e+00  -7.9746198284137426e-03 1.9591836734693882e-01 0.0000000000000000e+00  -5.3978751357924338e-06 1.9550162875441901e-05 0.0000000000000000e+00  -7.8432422441087925e-03 1.9581026723671308e-01 0.0000000000000000e+00  1.6186769455163197e-04 5.1371348217805503e-04 0.0000000000000000e+00  -6.7734333032003097e-05 6.4688266239464463e-05 0.0000000000000000e+00  -1.2915476030549557e-05 3.0225709248314414e-04 0.0000000000000000e+00  -1.6390464162814486e-04 4.6557173980447448e-04 0.0000000000000000e+00  4.7401188757729173e-06 2.7638029004304075e-04 0.0000000000000000e+00  4.6718324643478342e-05 5.8501704913378016e-05 0.0000000000000000e+00  -7.7914537846154484e-03 1.9591836734693877e-01 0.0000000000000000e+00  -7.8930703139946570e-03 1.9591836734693879e-01 0.0000000000000000e+00  -2.8484380574885994e-05 2.4878515090755486e-04 0.0000000000000000e+00  -7.7019256040922893e-03 1.9581479077408631e-01 0.0000000000000000e+00  1.8787062231869155e-05 2.7678367111524233e-04 0.0000000000000000e+00  -7.7478902971221900e-03 1.9584499485443682e-01 0.0000000000000000e+00  6.3013136207011762e-05 1.6760506998336034e-04 0.0000000000000000e+00  -7.9172076080958638e-05 1.8724469951164201e-04 0.0000000000000000e+00  -7.9871325766913970e-03 1.9582661653744640e-01 0.0000000000000000e+00  -3.5778102776480945e-05 5.9494010382268372e-05 0.0000000000000000e+00  -3.7082381332997990e-05 1.1032130148233705e-04 0.0000000000000000e+00  8.8013351024796902e-05 3.8526809089860871e-04 0.0000000000000000e+00  3.9977720101608856e-05 1.8549781297570240e-04 0.0000000000000000e+00  -7.5208247624532773e-03 1.9532642025659167e-01 0.0000000000000000e+00  -1.3088303026309627e-04 2.2452098742230798e-04 0.0000000000000000e+00  3.0003313490366445e-05 9.8531575992966684e-05 0.0000000000000000e+00  2.6406931645314464e-05 5.0261122011197239e-05 0.0000000000000000e+00  -4.9575631966042267e-05 2.0754383448916860e-04 0.0000000000000000e+00  -6.6506580938592726e-05 1.0541909670736239e-04 0.0000000000000000e+00  -7.9536421442164759e-03 1.9583517373699602e-01 0.0000000000000000e+00  -7.9406024250626220e-03 1.9539799990318915e-01 0.0000000000000000e+00  5.8350745996449390e-05 1.1414970490329349e-04 0.0000000000000000e+00  1.1513997009569005e-04 1.9014554581530733e-04 0.0000000000000000e+00  2.3215720276707454e-04 5.0900656722397037e-04 0.0000000000000000e+00  -7.9971951781473774e-03 1.9545267504516523e-01 0.0000000000000000e+00  2.2764706062143587e-05 1.7483648937462548e-04 0.0000000000000000e+00  -1.8820130369680566e-05 2.2967947011735434e-05 0.0000000000000000e+00  1.3083115877877313e-05 1.2314803196888913e-04 0.0000000000000000e+00  -8.5361560664688058e-03 1.9408530913730021e-01 0.0000000000000000e+00  -5.2492172806301825e-05 1.7422743783066088e-04 0.0000000000000000e+00  1.0496005708284864e-05 1.9956175602403048e-05 0.0000000000000000e+00  -2.0891832502724381e-05 1.2613253444566935e-04 0.0000000000000000e+00  -7.9203016908755888e-03 1.9586334047670037e-01 0.0000000000000000e+00  -2.1737405952585921e-05 3.4296407513011439e-05 0.0000000000000000e+00  5.0105945457774566e-05 7.5784602586439288e-05 0.0000000000000000e+00  1.2764314018642713e-05 3.7018967679700425e-05 0.0000000000000000e+00  -8.8771121741211195e-05 3.4663446391114600e-04 0.0000000000000000e+00  -7.8709789913547577e-03 1.9586131078325902e-01 0.0000000000000000e+00  -7.8118057056069182e-03 1.9587305767289431e-01 0.0000000000000000e+00  -8.0233324741154147e-03 1.9577809369146312e-01 0.0000000000000000e+00  -6.3924052949993653e-05 2.2201595414434407e-04 0.0000000000000000e+00  -9.1110942952178566e-05 1.5023360162758924e-04 0.0000000000000000e+00  5.0597166138360065e-05 1.9981284176777040e-04 0.0000000000000000e+00  -7.7394567782226639e-03 1.9587401730421067e-01 0.0000000000000000e+00  -7.6315997707952282e-03 1.9573345226583447e-01 0.0000000000000000e+00  -7.7054390221888919e-03 1.9585495401535366e-01 0.0000000000000000e+00  9.4843532776803360e-05 4.4665333096855327e-04 0.0000000000000000e+00  -1.9696855577034827e-05 3.1238036386357497e-04 0.0000000000000000e+00  8.1216637349004861e-05 2.1415559083098694e-04 0.0000000000000000e+00  -1.2450725423308380e-04 2.1410818430164888e-04 0.0000000000000000e+00  -8.0073289190589394e-03 1.9586249951568915e-01 0.0000000000000000e+00  -7.7745480103738286e-03 1.9591836734693879e-01 0.0000000000000000e+00  -5.1445828375982028e-06 2.9003819319751019e-04 0.0000000000000000e+00  4.0040566107127771e-05 8.0026127216777134e-05 0.0000000000000000e+00  -7.9388521257197156e-03 1.9578869598001231e-01 0.0000000000000000e+00  2.5255341831947562e-05 2.2750056556263085e-04 0.0000000000000000e+00  -6.2623979288884617e-05 7.5213440509135001e-05 0.0000000000000000e+00  -2.6827220185844051e-04 5.6086534776760477e-04 0.0000000000000000e+00  -3.1507026636458130e-05 2.7417406408942650e-04 0.0000000000000000e+00  -1.3994129928575550e-05 1.5681488694770725e-04 0.0000000000000000e+00  5.2942785895919362e-05 1.5121894792219674e-04 0.0000000000000000e+00  -3.3639188957760403e-05 2.4847047245573001e-04 0.0000000000000000e+00  -3.8158271963168529e-06 2.5858174291091505e-04 0.0000000000000000e+00  -1.8482325480333132e-04 4.0688470574723701e-04 0.0000000000000000e+00  -7.7736036150987554e-03 1.9587371495089756e-01 0.0000000000000000e+00  1.5829249137648839e-04 3.1911996280097000e-04 0.0000000000000000e+00  -6.2611956553200893e-05 1.8347725889214135e-04 0.0000000000000000e+00  7.3273076904882664e-05 3.6324130100202126e-04 0.0000000000000000e+00  -7.6511271519816145e-03 1.9570973732285016e-01 0.0000000000000000e+00  -7.0345212160204462e-05 1.4460587546896906e-04 0.0000000000000000e+00  -7.9583955110146265e-03 1.9591836734693879e-01 0.0000000000000000e+00  7.6119441837641812e-05 1.4694668284442571e-04 0.0000000000000000e+00  -7.9974955975786344e-03 1.9577067193740083e-01 0.0000000000000000e+00  1.6799218806451145e-04 4.3699746751437731e-04 0.0000000000000000e+00  1.0296495213704163e-04 1.9206348711233869e-04 0.0000000000000000e+00  -9.9884035628886053e-05 2.3904914333145724e-04 0.0000000000000000e+00  -7.9893921503357713e-03 1.9591836734693882e-01 0.0000000000000000e+00  4.9658612089900417e-05 1.6185543154118644e-04 0.0000000000000000e+00  -4.7792326798162864e-05 7.5332083522435282e-05 0.0000000000000000e+00  3.4079732190990120e-05 1.5546739950330233e-04 0.0000000000000000e+00  -7.9676372106165516e-03 1.9586646968263019e-01 0.0000000000000000e+00  -4.2363705928734814e-05 1.7295374467042552e-04 0.0000000000000000e+00  -1.8476654508633886e-04 3.5004003142900895e-04 0.0000000000000000e+00  7.7954721445498251e-05 1.8879585633206595e-04 0.0000000000000000e+00  -7.7299093038636279e-03 1.9578645578090700e-01 0.0000000000000000e+00  -9.9702952405577460e-05 2.0027467801066339e-04 0.0000000000000000e+00  -7.9904847953828594e-03 1.9586183309416916e-01 0.0000000000000000e+00  -1.0085367405792951e-05 2.0479026069407773e-04 0.0000000000000000e+00  -1.9167814333643460e-06 9.2560524859244548e-06 0.0000000000000000e+00  2.2111467716258819e-05 4.6740761063083766e-05 0.0000000000000000e+00  -7.7237777104033874e-03 1.9582718970021964e-01 0.0000000000000000e+00  -2.1189031734939231e-05 2.8867305377510707e-05 0.0000000000000000e+00  9.2370381582872886e-06 2.6378519569398678e-05 0.0000000000000000e+00  -8.8256092734068380e-05 1.2956142889957906e-04 0.0000000000000000e+00  3.3285177985048538e-05 5.1981098546400487e-05 0.0000000000000000e+00  6.7091398811185599e-05 8.3616159382042185e-05 0.0000000000000000e+00  -4.4415633366114561e-05 5.0891046798723010e-05 0.0000000000000000e+00  -7.8585150869134070e-03 1.9565228000057500e-01 0.0000000000000000e+00  -2.6259931963559223e-05 5.3151961278661123e-05 0.0000000000000000e+00  -6.2456667341328356e-05 1.2308967544285906e-04 0.0000000000000000e+00  2.6574490721815243e-04 5.9910670102317958e-04 0.0000000000000000e+00  -7.8097835459436798e-03 1.9582399930104102e-01 0.0000000000000000e+00  -7.8810047922822663e-03 1.9578088594320475e-01 0.0000000000000000e+00  -7.8394768815603037e-03 1.9586698923619320e-01 0.0000000000000000e+00  -7.9735916465424189e-03 1.9579966941905208e-01 0.0000000000000000e+00  -4.3388407940964177e-05 3.1134338077259472e-04 0.0000000000000000e+00  3.2131280152984748e-06 1.9673783493705775e-04 0.0000000000000000e+00  -6.9657763468135379e-05 2.7720200802401168e-04 0.0000000000000000e+00  5.3953966051233112e-05 1.3511439235868586e-04 0.0000000000000000e+00  2.2284370195440392e-05 2.4904481315519744e-04 0.0000000000000000e+00  1.2130711818962820e-05 3.4027277113655779e-04 0.0000000000000000e+00  -7.5999881022894974e-03 1.9566019304041951e-01 0.0000000000000000e+00  -9.1052281429376407e-05 8.9736429952027509e-05 0.0000000000000000e+00  -7.7446660987718578e-03 1.9591836734693879e-01 0.0000000000000000e+00  -1.1909357297081457e-04 1.5354095391754697e-04 0.0000000000000000e+00  -6.1836203401926089e-05 2.4427146769256220e-04 0.0000000000000000e+00  -8.0405288667920998e-03 1.9572851823156398e-01 0.0000000000000000e+00  -7.8125763507485256e-03 1.9591836734693879e-01 0.0000000000000000e+00  -1.0093836704664636e-04 4.0807244752567954e-04 0.0000000000000000e+00  1.9274907828848380e-05 4.4978375089552756e-05 0.0000000000000000e+00  6.9692790117785607e-05 8.0196083263166831e-05 0.0000000000000000e+00  9.7486166411392378e-05 1.3751853262519858e-04 0.0000000000000000e+00  -7.9173938183953567e-03 1.9591836734693879e-01 0.0000000000000000e+00  -7.8662558100082419e-03 1.9591836734693879e-01 0.0000000000000000e+00  4.8510290482422738e-05 2.1949513959607388e-04 0.0000000000000000e+00  -7.7123324487946530e-03 1.9591836734693877e-01 0.0000000000000000e+00  -7.6845995339930601e-03 1.9584099317821144e-01 0.0000000000000000e+00  -4.0193551616954249e-05 4.8095202126301773e-05 0.0000000000000000e+00  -7.7229444907972108e-03 1.9586735313112555e-01 0.0000000000000000e+00  1.9093236450795845e-05 7.0458636825047714e-05 0.0000000000000000e+00  -5.9540238835936199e-05 1.2724342951350449e-04 0.0000000000000000e+00  -7.6821185417990925e-03 1.9579553393641319e-01 0.0000000000000000e+00  8.0979412736520185e-05 9.8971238032414971e-05 0.0000000000000000e+00  -1.9550676437299177e-05 2.5279506315318654e-05 0.0000000000000000e+00  -7.9153640748149274e-05 2.1710037391471545e-04 0.0000000000000000e+00  3.4475832649778266e-05 8.6325799080531071e-05 0.0000000000000000e+00  -2.8212921571416678e-06 2.7835459505992020e-05 0.0000000000000000e+00  -1.0986469216041091e-04 2.4483162229569017e-04 0.0000000000000000e+00  -7.8978060148414235e-03 1.9585732614718701e-01 0.0000000000000000e+00  -3.9501345129939122e-06 1.1082477411276760e-04 0.0000000000000000e+00  -7.7612330303228763e-03 1.9583295388090782e-01 0.0000000000000000e+00  -2.8198625541564899e-04 5.5714719687151846e-04 0.0000000000000000e+00  -2.3339496644383725e-05 7.2151758766376330e-05 0.0000000000000000e+00  -8.0012208865906237e-03 1.9581618274562743e-01 0.0000000000000000e+00  -7.7601467537532429e-03 1.9588296140724110e-01 0.0000000000000000e+00  -3.3271224385074452e-05 4.5911182830394760e-05 0.0000000000000000e+00  -3.6914967752488991e-04 6.8749687778477900e-04 0.0000000000000000e+00  -7.7834828334920128e-03 1.9576716933984231e-01 0.0000000000000000e+00  1.5028548398336008e-05 2.4079811415315575e-05 0.0000000000000000e+00  -4.8846263501900095e-05 9.6131787166626889e-05 0.0000000000000000e+00  2.4450263675483345e-05 3.3188806644106534e-04 0.0000000000000000e+00  5.0167543472501149e-05 2.8352197609750156e-04 0.0000000000000000e+00  -4.0202903111217123e-05 8.8224875554061016e-05 0.0000000000000000e+00  1.8605050169159722e-04 3.4918595739622280e-04 0.0000000000000000e+00  -7.9283159651632063e-03 1.9575924802333350e-01 0.0000000000000000e+00  -4.7486863552803361e-05 1.3651774439153749e-04 0.0000000000000000e+00  2.8190624941056599e-05 5.1208912207328969e-05 0.0000000000000000e+00  2.5428911359921572e-05 1.3778642199127185e-04 0.0000000000000000e+00  6.2685721536066667e-05 1.9616948756019374e-04 0.0000000000000000e+00  -7.7905330093076446e-03 1.9586944840035908e-01 0.0000000000000000e+00  4.1642550873210348e-05 1.4714224142828238e-04 0.0000000000000000e+00  4.0332105829607514e-05 2.1083125084809298e-04 0.0000000000000000e+00  -5.1576129395921436e-05 2.3338613802389755e-04 0.0000000000000000e+00  -3.2414258377142671e-05 1.5634741303223467e-04 0.0000000000000000e+00  -7.9892035556688983e-03 1.9562277947542916e-01 0.0000000000000000e+00  2.9850781344166184e-04 5.9741948351223542e-04 0.0000000000000000e+00  2.9396247898644663e-04 6.9372595030165807e-04 0.0000000000000000e+00  -8.0570523499884686e-05 1.0431181180638149e-04 0.0000000000000000e+00  -7.9567985647558646e-03 1.9573115336641750e-01 0.0000000000000000e+00  4.8037174784706762e-06 8.7286934310012770e-05 0.0000000000000000e+00  7.4325486716508125e-05 1.2042444461166207e-04 0.0000000000000000e+00  -8.0207656373391978e-06 3.4208308727284773e-05 0.0000000000000000e+00  -7.9566962623112622e-03 1.9579136836697014e-01 0.0000000000000000e+00  -5.9809729904561145e-05 7.4333843272787520e-04 0.0000000000000000e+00  1.7624808326255136e-04 3.0597497956737950e-04 0.0000000000000000e+00  -7.9506009701401769e-03 1.9588056692725406e-01 0.0000000000000000e+00  5.4798522728207026e-05 1.0150904253136577e-04 0.0000000000000000e+00  -7.5982281261811118e-03 1.9541729846291217e-01 0.0000000000000000e+00  1.7048291643169497e-04 3.8662817126156290e-04 0.0000000000000000e+00  -5