<?xml version="1.0"?>
<VTKFile type="UnstructuredGrid"  version="0.1"  >
<UnstructuredGrid>
<Piece  NumberOfPoints="101" NumberOfCells="100">
<Points>
<DataArray  type="Float64"  NumberOfComponents="3"  format="ascii">0 0 0  0.01 0 0  0.02 0 0  0.03 0 0  0.04 0 0  0.05 0 0  0.06 0 0  0.07000000000000001 0 0  0.08 0 0  0.09 0 0  0.1 0 0  0.11 0 0  0.12 0 0  0.13 0 0  0.14 0 0  0.15 0 0  0.16 0 0  0.17 0 0  0.18 0 0  0.19 0 0  0.2 0 0  0.21 0 0  0.22 0 0  0.23 0 0  0.24 0 0  0.25 0 0  0.26 0 0  0.27 0 0  0.28 0 0  0.29 0 0  0.3 0 0  0.31 0 0  0.32 0 0  0.33 0 0  0.34 0 0  0.35 0 0  0.36 0 0  0.37 0 0  0.38 0 0  0.39 0 0  0.4 0 0  0.41 0 0  0.42 0 0  0.43 0 0  0.44 0 0  0.45 0 0  0.46 0 0  0.47 0 0  0.48 0 0  0.49 0 0  0.5 0 0  0.51 0 0  0.52 0 0  0.53 0 0  0.54 0 0  0.55 0 0  0.5600000000000001 0 0  0.57 0 0  0.58 0 0  0.59 0 0  0.6 0 0  0.61 0 0  0.62 0 0  0.63 0 0  0.64 0 0  0.65 0 0  0.66 0 0  0.67 0 0  0.68 0 0  0.6899999999999999 0 0  0.7 0 0  0.71 0 0  0.72 0 0  0.73 0 0  0.74 0 0  0.75 0 0  0.76 0 0  0.77 0 0  0.78 0 0  0.79 0 0  0.8 0 0  0.8100000000000001 0 0  0.82 0 0  0.83 0 0  0.84 0 0  0.85 0 0  0.86 0 0  0.87 0 0  0.88 0 0  0.89 0 0  0.9 0 0  0.91 0 0  0.92 0 0  0.93 0 0  0.9399999999999999 0 0  0.95 0 0  0.96 0 0  0.97 0 0  0.98 0 0  0.99 0 0  1 0 0  </DataArray>
</Points>
<Cells>
<DataArray  type="UInt32"  Name="connectivity"  format="ascii">0 1  1 2  2 3  3 4  4 5  5 6  6 7  7 8  8 9  9 10  10 11  11 12  12 13  13 14  14 15  15 16  16 17  17 18  18 19  19 20  20 21  21 22  22 23  23 24  24 25  25 26  26 27  27 28  28 29  29 30  30 31  31 32  32 33  33 34  34 35  35 36  36 37  37 38  38 39  39 40  40 41  41 42  42 43  43 44  44 45  45 46  46 47  47 48  48 49  49 50  50 51  51 52  52 53  53 54  54 55  55 56  56 57  57 58  58 59  59 60  60 61  61 62  62 63  63 64  64 65  65 66  66 67  67 68  68 69  69 70  70 71  71 72  72 73  73 74  74 75  75 76  76 77  77 78  78 79  79 80  80 81  81 82  82 83  83 84  84 85  85 86  86 87  87 88  88 89  89 90  90 91  91 92  92 93  93 94  94 95  95 96  96 97  97 98  98 99  99 100  </DataArray>
<DataArray  type="UInt32"  Name="offsets"  format="ascii">2 4 6 8 10 12 14 16 18 20 22 24 26 28 30 32 34 36 38 40 42 44 46 48 50 52 54 56 58 60 62 64 66 68 70 72 74 76 78 80 82 84 86 88 90 92 94 96 98 100 102 104 106 108 110 112 114 116 118 120 122 124 126 128 130 132 134 136 138 140 142 144 146 148 150 152 154 156 158 160 162 164 166 168 170 172 174 176 178 180 182 184 186 188 190 192 194 196 198 200 </DataArray>
<DataArray  type="UInt8"  Name="types"  format="ascii">3 3 3 3 3 3 3 3 3 3 3 3 3 3 3 3 3 3 3 3 3 3 3 3 3 3 3 3 3 3 3 3 3 3 3 3 3 3 3 3 3 3 3 3 3 3 3 3 3 3 3 3 3 3 3 3 3 3 3 3 3 3 3 3 3 3 3 3 3 3 3 3 3 3 3 3 3 3 3 3 3 3 3 3 3 3 3 3 3 3 3 3 3 3 3 3 3 3 3 3 </DataArray>
</Cells>
<PointData  Scalars="displacement"> 
<DataArray  type="Float64"  Name="displacement"  format="ascii">0.0000000000000000e+00  6.2244437451279945e-04  1.2448887490255989e-03  1.8673331235383977e-03  2.4897774980511961e-03  3.1122218725639951e-03  3.7346662470767933e-03  4.3571106215895923e-03  4.9795549961023904e-03  5.6019993706151886e-03  6.2244437451279876e-03  6.8468881196407849e-03  7.4693324941535830e-03  8.0917768686663838e-03  8.7142212431791828e-03  9.3366656176919801e-03  9.9591099922047791e-03  1.0581554366717576e-02  1.1203998741230374e-02  1.1826443115743171e-02  1.2448887490255968e-02  1.3071331864768767e-02  1.3693776239281572e-02  1.4316220613794371e-02  1.4938664988307170e-02  1.5561109362819967e-02  1.6183553737332764e-02  1.6805998111845560e-02  1.7428442486358359e-02  1.8050886860871151e-02  1.8673331235383943e-02  1.9295775609896731e-02  1.9918219984409524e-02  2.0540664358922312e-02  2.1163108733435101e-02  2.1785553107947882e-02  2.2407997482460661e-02  2.3030441856973439e-02  2.3652886231486221e-02  2.4275330605998999e-02  2.4897774980511777e-02  2.5520219355024548e-02  2.6142663729537319e-02  2.6765108104050084e-02  2.7387552478562859e-02  2.8009996853075626e-02  2.8632441227588401e-02  2.9254885602101162e-02  2.9877329976613919e-02  3.0499774351126677e-02  3.1122218725639441e-02  3.1744663100152205e-02  3.2367107474664980e-02  3.2989551849177748e-02  3.3611996223690516e-02  3.4234440598203283e-02  3.4856884972716044e-02  3.5479329347228819e-02  3.6101773721741608e-02  3.6724218096254382e-02  3.7346662470767171e-02  3.7969106845279960e-02  3.8591551219792741e-02  3.9213995594305523e-02  3.9836439968818298e-02  4.0458884343331072e-02  4.1081328717843847e-02  4.1703773092356622e-02  4.2326217466869404e-02  4.2948661841382185e-02  4.3571106215894988e-02  4.4193550590407790e-02  4.4815994964920586e-02  4.5438439339433381e-02  4.6060883713946177e-02  4.6683328088458972e-02  4.7305772462971768e-02  4.7928216837484570e-02  4.8550661211997380e-02  4.9173105586510189e-02  4.9795549961023006e-02  5.0417994335535808e-02  5.1040438710048631e-02  5.1662883084561476e-02  5.2285327459074320e-02  5.2907771833587171e-02  5.3530216208100008e-02  5.4152660582612852e-02  5.4775104957125703e-02  5.5397549331638554e-02  5.6019993706151391e-02  5.6642438080664236e-02  5.7264882455177087e-02  5.7887326829689924e-02  5.8509771204202775e-02  5.9132215578715661e-02  5.9754659953228553e-02  6.0377104327741439e-02  6.0999548702254318e-02  6.1621993076767217e-02  6.2244437451280117e-02  </DataArray> 
</PointData> 
</Piece>
</UnstructuredGrid>
</VTKFile>