<?xml version="1.0"?>
<VTKFile type="UnstructuredGrid"  version="0.1"  >
<UnstructuredGrid>
<Piece  NumberOfPoints="101" NumberOfCells="100">
<Points>
<DataArray  type="Float64"  NumberOfComponents="3"  format="ascii">0 0 0  0.01 0 0  0.02 0 0  0.03 0 0  0.04 0 0  0.05 0 0  0.06 0 0  0.07000000000000001 0 0  0.08 0 0  0.09 0 0  0.1 0 0  0.11 0 0  0.12 0 0  0.13 0 0  0.14 0 0  0.15 0 0  0.16 0 0  0.17 0 0  0.18 0 0  0.19 0 0  0.2 0 0  0.21 0 0  0.22 0 0  0.23 0 0  0.24 0 0  0.25 0 0  0.26 0 0  0.27 0 0  0.28 0 0  0.29 0 0  0.3 0 0  0.31 0 0  0.32 0 0  0.33 0 0  0.34 0 0  0.35 0 0  0.36 0 0  0.37 0 0  0.38 0 0  0.39 0 0  0.4 0 0  0.41 0 0  0.42 0 0  0.43 0 0  0.44 0 0  0.45 0 0  0.46 0 0  0.47 0 0  0.48 0 0  0.49 0 0  0.5 0 0  0.51 0 0  0.52 0 0  0.53 0 0  0.54 0 0  0.55 0 0  0.5600000000000001 0 0  0.57 0 0  0.58 0 0  0.59 0 0  0.6 0 0  0.61 0 0  0.62 0 0  0.63 0 0  0.64 0 0  0.65 0 0  0.66 0 0  0.67 0 0  0.68 0 0  0.6899999999999999 0 0  0.7 0 0  0.71 0 0  0.72 0 0  0.73 0 0  0.74 0 0  0.75 0 0  0.76 0 0  0.77 0 0  0.78 0 0  0.79 0 0  0.8 0 0  0.8100000000000001 0 0  0.82 0 0  0.83 0 0  0.84 0 0  0.85 0 0  0.86 0 0  0.87 0 0  0.88 0 0  0.89 0 0  0.9 0 0  0.91 0 0  0.92 0 0  0.93 0 0  0.9399999999999999 0 0  0.95 0 0  0.96 0 0  0.97 0 0  0.98 0 0  0.99 0 0  1 0 0  </DataArray>
</Points>
<Cells>
<DataArray  type="UInt32"  Name="connectivity"  format="ascii">0 1  1 2  2 3  3 4  4 5  5 6  6 7  7 8  8 9  9 10  10 11  11 12  12 13  13 14  14 15  15 16  16 17  17 18  18 19  19 20  20 21  21 22  22 23  23 24  24 25  25 26  26 27  27 28  28 29  29 30  30 31  31 32  32 33  33 34  34 35  35 36  36 37  37 38  38 39  39 40  40 41  41 42  42 43  43 44  44 45  45 46  46 47  47 48  48 49  49 50  50 51  51 52  52 53  53 54  54 55  55 56  56 57  57 58  58 59  59 60  60 61  61 62  62 63  63 64  64 65  65 66  66 67  67 68  68 69  69 70  70 71  71 72  72 73  73 74  74 75  75 76  76 77  77 78  78 79  79 80  80 81  81 82  82 83  83 84  84 85  85 86  86 87  87 88  88 89  89 90  90 91  91 92  92 93  93 94  94 95  95 96  96 97  97 98  98 99  99 100  </DataArray>
<DataArray  type="UInt32"  Name="offsets"  format="ascii">2 4 6 8 10 12 14 16 18 20 22 24 26 28 30 32 34 36 38 40 42 44 46 48 50 52 54 56 58 60 62 64 66 68 70 72 74 76 78 80 82 84 86 88 90 92 94 96 98 100 102 104 106 108 110 112 114 116 118 120 122 124 126 128 130 132 134 136 138 140 142 144 146 148 150 152 154 156 158 160 162 164 166 168 170 172 174 176 178 180 182 184 186 188 190 192 194 196 198 200 </DataArray>
<DataArray  type="UInt8"  Name="types"  format="ascii">3 3 3 3 3 3 3 3 3 3 3 3 3 3 3 3 3 3 3 3 3 3 3 3 3 3 3 3 3 3 3 3 3 3 3 3 3 3 3 3 3 3 3 3 3 3 3 3 3 3 3 3 3 3 3 3 3 3 3 3 3 3 3 3 3 3 3 3 3 3 3 3 3 3 3 3 3 3 3 3 3 3 3 3 3 3 3 3 3 3 3 3 3 3 3 3 3 3 3 3 </DataArray>
</Cells>
<PointData  Scalars="displacement"> 
<DataArray  type="Float64"  Name="displacement"  format="ascii">0.0000000000000000e+00  1.0374072908546652e-03  2.0748145817093304e-03  3.1122218725639947e-03  4.1496291634186590e-03  5.1870364542733229e-03  6.2244437451279859e-03  7.2618510359826523e-03  8.2992583268373162e-03  9.3366656176919784e-03  1.0374072908546644e-02  1.1411480199401308e-02  1.2448887490255973e-02  1.3486294781110643e-02  1.4523702071965308e-02  1.5561109362819969e-02  1.6598516653674636e-02  1.7635923944529300e-02  1.8673331235383960e-02  1.9710738526238628e-02  2.0748145817093288e-02  2.1785553107947952e-02  2.2822960398802619e-02  2.3860367689657287e-02  2.4897774980511954e-02  2.5935182271366618e-02  2.6972589562221285e-02  2.8009996853075945e-02  2.9047404143930609e-02  3.0084811434785263e-02  3.1122218725639916e-02  3.2159626016494566e-02  3.3197033307349216e-02  3.4234440598203866e-02  3.5271847889058509e-02  3.6309255179913139e-02  3.7346662470767775e-02  3.8384069761622404e-02  3.9421477052477040e-02  4.0458884343331669e-02  4.1496291634186291e-02  4.2533698925040914e-02  4.3571106215895536e-02  4.4608513506750144e-02  4.5645920797604760e-02  4.6683328088459368e-02  4.7720735379313997e-02  4.8758142670168605e-02  4.9795549961023207e-02  5.0832957251877808e-02  5.1870364542732410e-02  5.2907771833587025e-02  5.3945179124441633e-02  5.4982586415296249e-02  5.6019993706150864e-02  5.7057400997005479e-02  5.8094808287860095e-02  5.9132215578714710e-02  6.0169622869569353e-02  6.1207030160423996e-02  6.2244437451278639e-02  6.3281844742133275e-02  6.4319252032987911e-02  6.5356659323842548e-02  6.6394066614697184e-02  6.7431473905551806e-02  6.8468881196406428e-02  6.9506288487261050e-02  7.0543695778115673e-02  7.1581103068970323e-02  7.2618510359825000e-02  7.3655917650679678e-02  7.4693324941534328e-02  7.5730732232389006e-02  7.6768139523243656e-02  7.7805546814098306e-02  7.8842954104952970e-02  7.9880361395807647e-02  8.0917768686662325e-02  8.1955175977517003e-02  8.2992583268371695e-02  8.4029990559226372e-02  8.5067397850081064e-02  8.6104805140935811e-02  8.7142212431790531e-02  8.8179619722645278e-02  8.9217027013500011e-02  9.0254434304354758e-02  9.1291841595209519e-02  9.2329248886064266e-02  9.3366656176918986e-02  9.4404063467773733e-02  9.5441470758628480e-02  9.6478878049483227e-02  9.7516285340337988e-02  9.8553692631192805e-02  9.9591099922047607e-02  1.0062850721290241e-01  1.0166591450375723e-01  1.0270332179461204e-01  1.0374072908546687e-01  </DataArray> 
</PointData> 
</Piece>
</UnstructuredGrid>
</VTKFile>