<?xml version="1.0"?>
<VTKFile type="UnstructuredGrid"  version="0.1"  >
<UnstructuredGrid>
<Piece  NumberOfPoints="101" NumberOfCells="100">
<Points>
<DataArray  type="Float64"  NumberOfComponents="3"  format="ascii">0 0 0  0.01 0 0  0.02 0 0  0.03 0 0  0.04 0 0  0.05 0 0  0.06 0 0  0.07000000000000001 0 0  0.08 0 0  0.09 0 0  0.1 0 0  0.11 0 0  0.12 0 0  0.13 0 0  0.14 0 0  0.15 0 0  0.16 0 0  0.17 0 0  0.18 0 0  0.19 0 0  0.2 0 0  0.21 0 0  0.22 0 0  0.23 0 0  0.24 0 0  0.25 0 0  0.26 0 0  0.27 0 0  0.28 0 0  0.29 0 0  0.3 0 0  0.31 0 0  0.32 0 0  0.33 0 0  0.34 0 0  0.35 0 0  0.36 0 0  0.37 0 0  0.38 0 0  0.39 0 0  0.4 0 0  0.41 0 0  0.42 0 0  0.43 0 0  0.44 0 0  0.45 0 0  0.46 0 0  0.47 0 0  0.48 0 0  0.49 0 0  0.5 0 0  0.51 0 0  0.52 0 0  0.53 0 0  0.54 0 0  0.55 0 0  0.5600000000000001 0 0  0.57 0 0  0.58 0 0  0.59 0 0  0.6 0 0  0.61 0 0  0.62 0 0  0.63 0 0  0.64 0 0  0.65 0 0  0.66 0 0  0.67 0 0  0.68 0 0  0.6899999999999999 0 0  0.7 0 0  0.71 0 0  0.72 0 0  0.73 0 0  0.74 0 0  0.75 0 0  0.76 0 0  0.77 0 0  0.78 0 0  0.79 0 0  0.8 0 0  0.8100000000000001 0 0  0.82 0 0  0.83 0 0  0.84 0 0  0.85 0 0  0.86 0 0  0.87 0 0  0.88 0 0  0.89 0 0  0.9 0 0  0.91 0 0  0.92 0 0  0.93 0 0  0.9399999999999999 0 0  0.95 0 0  0.96 0 0  0.97 0 0  0.98 0 0  0.99 0 0  1 0 0  </DataArray>
</Points>
<Cells>
<DataArray  type="UInt32"  Name="connectivity"  format="ascii">0 1  1 2  2 3  3 4  4 5  5 6  6 7  7 8  8 9  9 10  10 11  11 12  12 13  13 14  14 15  15 16  16 17  17 18  18 19  19 20  20 21  21 22  22 23  23 24  24 25  25 26  26 27  27 28  28 29  29 30  30 31  31 32  32 33  33 34  34 35  35 36  36 37  37 38  38 39  39 40  40 41  41 42  42 43  43 44  44 45  45 46  46 47  47 48  48 49  49 50  50 51  51 52  52 53  53 54  54 55  55 56  56 57  57 58  58 59  59 60  60 61  61 62  62 63  63 64  64 65  65 66  66 67  67 68  68 69  69 70  70 71  71 72  72 73  73 74  74 75  75 76  76 77  77 78  78 79  79 80  80 81  81 82  82 83  83 84  84 85  85 86  86 87  87 88  88 89  89 90  90 91  91 92  92 93  93 94  94 95  95 96  96 97  97 98  98 99  99 100  </DataArray>
<DataArray  type="UInt32"  Name="offsets"  format="ascii">2 4 6 8 10 12 14 16 18 20 22 24 26 28 30 32 34 36 38 40 42 44 46 48 50 52 54 56 58 60 62 64 66 68 70 72 74 76 78 80 82 84 86 88 90 92 94 96 98 100 102 104 106 108 110 112 114 116 118 120 122 124 126 128 130 132 134 136 138 140 142 144 146 148 150 152 154 156 158 160 162 164 166 168 170 172 174 176 178 180 182 184 186 188 190 192 194 196 198 200 </DataArray>
<DataArray  type="UInt8"  Name="types"  format="ascii">3 3 3 3 3 3 3 3 3 3 3 3 3 3 3 3 3 3 3 3 3 3 3 3 3 3 3 3 3 3 3 3 3 3 3 3 3 3 3 3 3 3 3 3 3 3 3 3 3 3 3 3 3 3 3 3 3 3 3 3 3 3 3 3 3 3 3 3 3 3 3 3 3 3 3 3 3 3 3 3 3 3 3 3 3 3 3 3 3 3 3 3 3 3 3 3 3 3 3 3 </DataArray>
</Cells>
<PointData  Scalars="displacement"> 
<DataArray  type="Float64"  Name="displacement"  format="ascii">0.0000000000000000e+00  9.1717796073867792e-06  1.8343559214773558e-05  2.7515338822160331e-05  3.6687118429547103e-05  4.5858898036933879e-05  5.5030677644320641e-05  6.4202457251707424e-05  7.3374236859094193e-05  8.2546016466480962e-05  9.1717796073867758e-05  1.0088957568125454e-04  1.1006135528864134e-04  1.1923313489602816e-04  1.2840491450341498e-04  1.3757669411080181e-04  1.4674847371818860e-04  1.5592025332557543e-04  1.6509203293296222e-04  1.7426381254034905e-04  1.8343559214773587e-04  1.9260737175512267e-04  2.0177915136250946e-04  2.1095093096989623e-04  2.2012271057728303e-04  2.2929449018466980e-04  2.3846626979205659e-04  2.4763804939944331e-04  2.5680982900683002e-04  2.6598160861421668e-04  2.7516930569766100e-04  2.8443532560365405e-04  2.9387568328405198e-04  3.0359457700015227e-04  3.1370986142403281e-04  3.2436006984325416e-04  3.3571398099016661e-04  3.4798430901585421e-04  3.6144815927909073e-04  3.7647889606778526e-04  3.9359801244288857e-04  4.1356380398632097e-04  4.3753195247819344e-04  4.6736748651711978e-04  5.0630694855555017e-04  5.6053715175041763e-04  6.4361475250558555e-04  7.9217815761693767e-04  1.1495736895388681e-03  3.0371164563929923e-03  1.1410841856991552e-01  2.2519243840845102e-01  2.2708002478360459e-01  2.2743742399844064e-01  2.2758598834635627e-01  2.2766906631995926e-01  2.2772329670811842e-01  2.2776223627551065e-01  2.2779207187536266e-01  2.2781604006774350e-01  2.2783600588999131e-01  2.2785312502862723e-01  2.2786815578198757e-01  2.2788161964482204e-01  2.2789388998249879e-01  2.2790524390109096e-01  2.2791589411523364e-01  2.2792600940399216e-01  2.2793572830088343e-01  2.2794516866073505e-01  2.2795443468190793e-01  2.2796362237940831e-01  2.2797279415901570e-01  2.2798196593862305e-01  2.2799113771823037e-01  2.2800030949783776e-01  2.2800948127744511e-01  2.2801865305705249e-01  2.2802782483665990e-01  2.2803699661626731e-01  2.2804616839587474e-01  2.2805534017548215e-01  2.2806451195508967e-01  2.2807368373469725e-01  2.2808285551430477e-01  2.2809202729391234e-01  2.2810119907351989e-01  2.2811037085312746e-01  2.2811954263273504e-01  2.2812871441234264e-01  2.2813788619195019e-01  2.2814705797155774e-01  2.2815622975116537e-01  2.2816540153077294e-01  2.2817457331038060e-01  2.2818374508998834e-01  2.2819291686959609e-01  2.2820208864920380e-01  2.2821126042881154e-01  2.2822043220841931e-01  2.2822960398802711e-01  </DataArray> 
</PointData> 
</Piece>
</UnstructuredGrid>
</VTKFile>