<?xml version="1.0"?>
<VTKFile type="UnstructuredGrid"  version="0.1"  >
<UnstructuredGrid>
<Piece  NumberOfPoints="101" NumberOfCells="100">
<Points>
<DataArray  type="Float64"  NumberOfComponents="3"  format="ascii">0 0 0  0.01 0 0  0.02 0 0  0.03 0 0  0.04 0 0  0.05 0 0  0.06 0 0  0.07000000000000001 0 0  0.08 0 0  0.09 0 0  0.1 0 0  0.11 0 0  0.12 0 0  0.13 0 0  0.14 0 0  0.15 0 0  0.16 0 0  0.17 0 0  0.18 0 0  0.19 0 0  0.2 0 0  0.21 0 0  0.22 0 0  0.23 0 0  0.24 0 0  0.25 0 0  0.26 0 0  0.27 0 0  0.28 0 0  0.29 0 0  0.3 0 0  0.31 0 0  0.32 0 0  0.33 0 0  0.34 0 0  0.35 0 0  0.36 0 0  0.37 0 0  0.38 0 0  0.39 0 0  0.4 0 0  0.41 0 0  0.42 0 0  0.43 0 0  0.44 0 0  0.45 0 0  0.46 0 0  0.47 0 0  0.48 0 0  0.49 0 0  0.5 0 0  0.51 0 0  0.52 0 0  0.53 0 0  0.54 0 0  0.55 0 0  0.5600000000000001 0 0  0.57 0 0  0.58 0 0  0.59 0 0  0.6 0 0  0.61 0 0  0.62 0 0  0.63 0 0  0.64 0 0  0.65 0 0  0.66 0 0  0.67 0 0  0.68 0 0  0.6899999999999999 0 0  0.7 0 0  0.71 0 0  0.72 0 0  0.73 0 0  0.74 0 0  0.75 0 0  0.76 0 0  0.77 0 0  0.78 0 0  0.79 0 0  0.8 0 0  0.8100000000000001 0 0  0.82 0 0  0.83 0 0  0.84 0 0  0.85 0 0  0.86 0 0  0.87 0 0  0.88 0 0  0.89 0 0  0.9 0 0  0.91 0 0  0.92 0 0  0.93 0 0  0.9399999999999999 0 0  0.95 0 0  0.96 0 0  0.97 0 0  0.98 0 0  0.99 0 0  1 0 0  </DataArray>
</Points>
<Cells>
<DataArray  type="UInt32"  Name="connectivity"  format="ascii">0 1  1 2  2 3  3 4  4 5  5 6  6 7  7 8  8 9  9 10  10 11  11 12  12 13  13 14  14 15  15 16  16 17  17 18  18 19  19 20  20 21  21 22  22 23  23 24  24 25  25 26  26 27  27 28  28 29  29 30  30 31  31 32  32 33  33 34  34 35  35 36  36 37  37 38  38 39  39 40  40 41  41 42  42 43  43 44  44 45  45 46  46 47  47 48  48 49  49 50  50 51  51 52  52 53  53 54  54 55  55 56  56 57  57 58  58 59  59 60  60 61  61 62  62 63  63 64  64 65  65 66  66 67  67 68  68 69  69 70  70 71  71 72  72 73  73 74  74 75  75 76  76 77  77 78  78 79  79 80  80 81  81 82  82 83  83 84  84 85  85 86  86 87  87 88  88 89  89 90  90 91  91 92  92 93  93 94  94 95  95 96  96 97  97 98  98 99  99 100  </DataArray>
<DataArray  type="UInt32"  Name="offsets"  format="ascii">2 4 6 8 10 12 14 16 18 20 22 24 26 28 30 32 34 36 38 40 42 44 46 48 50 52 54 56 58 60 62 64 66 68 70 72 74 76 78 80 82 84 86 88 90 92 94 96 98 100 102 104 106 108 110 112 114 116 118 120 122 124 126 128 130 132 134 136 138 140 142 144 146 148 150 152 154 156 158 160 162 164 166 168 170 172 174 176 178 180 182 184 186 188 190 192 194 196 198 200 </DataArray>
<DataArray  type="UInt8"  Name="types"  format="ascii">3 3 3 3 3 3 3 3 3 3 3 3 3 3 3 3 3 3 3 3 3 3 3 3 3 3 3 3 3 3 3 3 3 3 3 3 3 3 3 3 3 3 3 3 3 3 3 3 3 3 3 3 3 3 3 3 3 3 3 3 3 3 3 3 3 3 3 3 3 3 3 3 3 3 3 3 3 3 3 3 3 3 3 3 3 3 3 3 3 3 3 3 3 3 3 3 3 3 3 3 </DataArray>
</Cells>
<PointData  Scalars="displacement"> 
<DataArray  type="Float64"  Name="displacement"  format="ascii">0.0000000000000000e+00  1.7635923944529315e-03  3.5271847889058630e-03  5.2907771833587925e-03  7.0543695778117225e-03  8.8179619722646516e-03  1.0581554366717580e-02  1.2345146761170512e-02  1.4108739155623438e-02  1.5872331550076366e-02  1.7635923944529300e-02  1.9399516338982226e-02  2.1163108733435160e-02  2.2926701127888097e-02  2.4690293522341030e-02  2.6453885916793960e-02  2.8217478311246890e-02  2.9981070705699824e-02  3.1744663100152747e-02  3.3508255494605670e-02  3.5271847889058600e-02  3.7035440283511530e-02  3.8799032677964460e-02  4.0562625072417396e-02  4.2326217466870333e-02  4.4089809861323263e-02  4.5853402255776193e-02  4.7616994650229116e-02  4.9380587044682039e-02  5.1144179439134942e-02  5.2907771833587851e-02  5.4671364228040753e-02  5.6434956622493655e-02  5.8198549016946557e-02  5.9962141411399453e-02  6.1725733805852341e-02  6.3489326200305216e-02  6.5252918594758097e-02  6.7016510989210964e-02  6.8780103383663832e-02  7.0543695778116700e-02  7.2307288172569553e-02  7.4070880567022421e-02  7.5834472961475261e-02  7.7598065355928114e-02  7.9361657750380954e-02  8.1125250144833821e-02  8.2888842539286647e-02  8.4652434933739473e-02  8.6416027328192285e-02  8.8179619722645125e-02  8.9943212117097965e-02  9.1706804511550818e-02  9.3470396906003672e-02  9.5233989300456512e-02  9.6997581694909352e-02  9.8761174089362191e-02  1.0052476648381503e-01  1.0228835887826793e-01  1.0405195127272081e-01  1.0581554366717368e-01  1.0757913606162656e-01  1.0934272845607947e-01  1.1110632085053236e-01  1.1286991324498521e-01  1.1463350563943807e-01  1.1639709803389095e-01  1.1816069042834380e-01  1.1992428282279666e-01  1.2168787521724955e-01  1.2345146761170249e-01  1.2521506000615540e-01  1.2697865240060832e-01  1.2874224479506127e-01  1.3050583718951417e-01  1.3226942958396709e-01  1.3403302197842001e-01  1.3579661437287296e-01  1.3756020676732592e-01  1.3932379916177887e-01  1.4108739155623187e-01  1.4285098395068482e-01  1.4461457634513780e-01  1.4637816873959084e-01  1.4814176113404390e-01  1.4990535352849696e-01  1.5166894592295005e-01  1.5343253831740311e-01  1.5519613071185617e-01  1.5695972310630923e-01  1.5872331550076230e-01  1.6048690789521533e-01  1.6225050028966842e-01  1.6401409268412148e-01  1.6577768507857457e-01  1.6754127747302777e-01  1.6930486986748094e-01  1.7106846226193409e-01  1.7283205465638726e-01  1.7459564705084046e-01  1.7635923944529366e-01  </DataArray> 
</PointData> 
</Piece>
</UnstructuredGrid>
</VTKFile>