<?xml version="1.0"?>
<VTKFile type="UnstructuredGrid"  version="0.1"  >
<UnstructuredGrid>
<Piece  NumberOfPoints="101" NumberOfCells="100">
<Points>
<DataArray  type="Float64"  NumberOfComponents="3"  format="ascii">0 0 0  0.01 0 0  0.02 0 0  0.03 0 0  0.04 0 0  0.05 0 0  0.06 0 0  0.07000000000000001 0 0  0.08 0 0  0.09 0 0  0.1 0 0  0.11 0 0  0.12 0 0  0.13 0 0  0.14 0 0  0.15 0 0  0.16 0 0  0.17 0 0  0.18 0 0  0.19 0 0  0.2 0 0  0.21 0 0  0.22 0 0  0.23 0 0  0.24 0 0  0.25 0 0  0.26 0 0  0.27 0 0  0.28 0 0  0.29 0 0  0.3 0 0  0.31 0 0  0.32 0 0  0.33 0 0  0.34 0 0  0.35 0 0  0.36 0 0  0.37 0 0  0.38 0 0  0.39 0 0  0.4 0 0  0.41 0 0  0.42 0 0  0.43 0 0  0.44 0 0  0.45 0 0  0.46 0 0  0.47 0 0  0.48 0 0  0.49 0 0  0.5 0 0  0.51 0 0  0.52 0 0  0.53 0 0  0.54 0 0  0.55 0 0  0.5600000000000001 0 0  0.57 0 0  0.58 0 0  0.59 0 0  0.6 0 0  0.61 0 0  0.62 0 0  0.63 0 0  0.64 0 0  0.65 0 0  0.66 0 0  0.67 0 0  0.68 0 0  0.6899999999999999 0 0  0.7 0 0  0.71 0 0  0.72 0 0  0.73 0 0  0.74 0 0  0.75 0 0  0.76 0 0  0.77 0 0  0.78 0 0  0.79 0 0  0.8 0 0  0.8100000000000001 0 0  0.82 0 0  0.83 0 0  0.84 0 0  0.85 0 0  0.86 0 0  0.87 0 0  0.88 0 0  0.89 0 0  0.9 0 0  0.91 0 0  0.92 0 0  0.93 0 0  0.9399999999999999 0 0  0.95 0 0  0.96 0 0  0.97 0 0  0.98 0 0  0.99 0 0  1 0 0  </DataArray>
</Points>
<Cells>
<DataArray  type="UInt32"  Name="connectivity"  format="ascii">0 1  1 2  2 3  3 4  4 5  5 6  6 7  7 8  8 9  9 10  10 11  11 12  12 13  13 14  14 15  15 16  16 17  17 18  18 19  19 20  20 21  21 22  22 23  23 24  24 25  25 26  26 27  27 28  28 29  29 30  30 31  31 32  32 33  33 34  34 35  35 36  36 37  37 38  38 39  39 40  40 41  41 42  42 43  43 44  44 45  45 46  46 47  47 48  48 49  49 50  50 51  51 52  52 53  53 54  54 55  55 56  56 57  57 58  58 59  59 60  60 61  61 62  62 63  63 64  64 65  65 66  66 67  67 68  68 69  69 70  70 71  71 72  72 73  73 74  74 75  75 76  76 77  77 78  78 79  79 80  80 81  81 82  82 83  83 84  84 85  85 86  86 87  87 88  88 89  89 90  90 91  91 92  92 93  93 94  94 95  95 96  96 97  97 98  98 99  99 100  </DataArray>
<DataArray  type="UInt32"  Name="offsets"  format="ascii">2 4 6 8 10 12 14 16 18 20 22 24 26 28 30 32 34 36 38 40 42 44 46 48 50 52 54 56 58 60 62 64 66 68 70 72 74 76 78 80 82 84 86 88 90 92 94 96 98 100 102 104 106 108 110 112 114 116 118 120 122 124 126 128 130 132 134 136 138 140 142 144 146 148 150 152 154 156 158 160 162 164 166 168 170 172 174 176 178 180 182 184 186 188 190 192 194 196 198 200 </DataArray>
<DataArray  type="UInt8"  Name="types"  format="ascii">3 3 3 3 3 3 3 3 3 3 3 3 3 3 3 3 3 3 3 3 3 3 3 3 3 3 3 3 3 3 3 3 3 3 3 3 3 3 3 3 3 3 3 3 3 3 3 3 3 3 3 3 3 3 3 3 3 3 3 3 3 3 3 3 3 3 3 3 3 3 3 3 3 3 3 3 3 3 3 3 3 3 3 3 3 3 3 3 3 3 3 3 3 3 3 3 3 3 3 3 </DataArray>
</Cells>
<PointData  Scalars="displacement"> 
<DataArray  type="Float64"  Name="displacement"  format="ascii">0.0000000000000000e+00  1.1411480199401325e-03  2.2822960398802650e-03  3.4234440598203963e-03  4.5645920797605282e-03  5.7057400997006591e-03  6.8468881196407901e-03  7.9880361395809219e-03  9.1291841595210529e-03  1.0270332179461182e-02  1.1411480199401313e-02  1.2552628219341444e-02  1.3693776239281577e-02  1.4834924259221711e-02  1.5976072279161844e-02  1.7117220299101975e-02  1.8258368319042106e-02  1.9399516338982240e-02  2.0540664358922368e-02  2.1681812378862495e-02  2.2822960398802626e-02  2.3964108418742757e-02  2.5105256438682892e-02  2.6246404458623026e-02  2.7387552478563157e-02  2.8528700498503291e-02  2.9669848518443419e-02  3.0810996538383550e-02  3.1952144558323681e-02  3.3093292578263801e-02  3.4234440598203922e-02  3.5375588618144035e-02  3.6516736638084149e-02  3.7657884658024263e-02  3.8799032677964376e-02  3.9940180697904476e-02  4.1081328717844569e-02  4.2222476737784662e-02  4.3363624757724761e-02  4.4504772777664854e-02  4.5645920797604947e-02  4.6787068817545019e-02  4.7928216837485098e-02  4.9069364857425177e-02  5.0210512877365256e-02  5.1351660897305342e-02  5.2492808917245434e-02  5.3633956937185492e-02  5.4775104957125557e-02  5.5916252977065622e-02  5.7057400997005681e-02  5.8198549016945746e-02  5.9339697036885825e-02  6.0480845056825897e-02  6.1621993076765975e-02  6.2763141096706040e-02  6.3904289116646112e-02  6.5045437136586198e-02  6.6186585156526298e-02  6.7327733176466384e-02  6.8468881196406498e-02  6.9610029216346611e-02  7.0751177236286711e-02  7.1892325256226811e-02  7.3033473276166896e-02  7.4174621296106968e-02  7.5315769316047054e-02  7.6456917335987154e-02  7.7598065355927240e-02  7.8739213375867353e-02  7.9880361395807509e-02  8.1021509415747636e-02  8.2162657435687764e-02  8.3303805455627905e-02  8.4444953475568019e-02  8.5586101495508146e-02  8.6727249515448274e-02  8.7868397535388415e-02  8.9009545555328570e-02  9.0150693575268726e-02  9.1291841595208881e-02  9.2432989615149022e-02  9.3574137635089191e-02  9.4715285655029402e-02  9.5856433674969613e-02  9.6997581694909837e-02  9.8138729714850062e-02  9.9279877734790287e-02  1.0042102575473051e-01  1.0156217377467072e-01  1.0270332179461093e-01  1.0384446981455116e-01  1.0498561783449138e-01  1.0612676585443159e-01  1.0726791387437180e-01  1.0840906189431210e-01  1.0955020991425238e-01  1.1069135793419266e-01  1.1183250595413294e-01  1.1297365397407325e-01  1.1411480199401355e-01  </DataArray> 
</PointData> 
</Piece>
</UnstructuredGrid>
</VTKFile>