<?xml version="1.0"?>
<VTKFile type="UnstructuredGrid"  version="0.1"  >
<UnstructuredGrid>
<Piece  NumberOfPoints="101" NumberOfCells="100">
<Points>
<DataArray  type="Float64"  NumberOfComponents="3"  format="ascii">0 0 0  0.01 0 0  0.02 0 0  0.03 0 0  0.04 0 0  0.05 0 0  0.06 0 0  0.07000000000000001 0 0  0.08 0 0  0.09 0 0  0.1 0 0  0.11 0 0  0.12 0 0  0.13 0 0  0.14 0 0  0.15 0 0  0.16 0 0  0.17 0 0  0.18 0 0  0.19 0 0  0.2 0 0  0.21 0 0  0.22 0 0  0.23 0 0  0.24 0 0  0.25 0 0  0.26 0 0  0.27 0 0  0.28 0 0  0.29 0 0  0.3 0 0  0.31 0 0  0.32 0 0  0.33 0 0  0.34 0 0  0.35 0 0  0.36 0 0  0.37 0 0  0.38 0 0  0.39 0 0  0.4 0 0  0.41 0 0  0.42 0 0  0.43 0 0  0.44 0 0  0.45 0 0  0.46 0 0  0.47 0 0  0.48 0 0  0.49 0 0  0.5 0 0  0.51 0 0  0.52 0 0  0.53 0 0  0.54 0 0  0.55 0 0  0.5600000000000001 0 0  0.57 0 0  0.58 0 0  0.59 0 0  0.6 0 0  0.61 0 0  0.62 0 0  0.63 0 0  0.64 0 0  0.65 0 0  0.66 0 0  0.67 0 0  0.68 0 0  0.6899999999999999 0 0  0.7 0 0  0.71 0 0  0.72 0 0  0.73 0 0  0.74 0 0  0.75 0 0  0.76 0 0  0.77 0 0  0.78 0 0  0.79 0 0  0.8 0 0  0.8100000000000001 0 0  0.82 0 0  0.83 0 0  0.84 0 0  0.85 0 0  0.86 0 0  0.87 0 0  0.88 0 0  0.89 0 0  0.9 0 0  0.91 0 0  0.92 0 0  0.93 0 0  0.9399999999999999 0 0  0.95 0 0  0.96 0 0  0.97 0 0  0.98 0 0  0.99 0 0  1 0 0  </DataArray>
</Points>
<Cells>
<DataArray  type="UInt32"  Name="connectivity"  format="ascii">0 1  1 2  2 3  3 4  4 5  5 6  6 7  7 8  8 9  9 10  10 11  11 12  12 13  13 14  14 15  15 16  16 17  17 18  18 19  19 20  20 21  21 22  22 23  23 24  24 25  25 26  26 27  27 28  28 29  29 30  30 31  31 32  32 33  33 34  34 35  35 36  36 37  37 38  38 39  39 40  40 41  41 42  42 43  43 44  44 45  45 46  46 47  47 48  48 49  49 50  50 51  51 52  52 53  53 54  54 55  55 56  56 57  57 58  58 59  59 60  60 61  61 62  62 63  63 64  64 65  65 66  66 67  67 68  68 69  69 70  70 71  71 72  72 73  73 74  74 75  75 76  76 77  77 78  78 79  79 80  80 81  81 82  82 83  83 84  84 85  85 86  86 87  87 88  88 89  89 90  90 91  91 92  92 93  93 94  94 95  95 96  96 97  97 98  98 99  99 100  </DataArray>
<DataArray  type="UInt32"  Name="offsets"  format="ascii">2 4 6 8 10 12 14 16 18 20 22 24 26 28 30 32 34 36 38 40 42 44 46 48 50 52 54 56 58 60 62 64 66 68 70 72 74 76 78 80 82 84 86 88 90 92 94 96 98 100 102 104 106 108 110 112 114 116 118 120 122 124 126 128 130 132 134 136 138 140 142 144 146 148 150 152 154 156 158 160 162 164 166 168 170 172 174 176 178 180 182 184 186 188 190 192 194 196 198 200 </DataArray>
<DataArray  type="UInt8"  Name="types"  format="ascii">3 3 3 3 3 3 3 3 3 3 3 3 3 3 3 3 3 3 3 3 3 3 3 3 3 3 3 3 3 3 3 3 3 3 3 3 3 3 3 3 3 3 3 3 3 3 3 3 3 3 3 3 3 3 3 3 3 3 3 3 3 3 3 3 3 3 3 3 3 3 3 3 3 3 3 3 3 3 3 3 3 3 3 3 3 3 3 3 3 3 3 3 3 3 3 3 3 3 3 3 </DataArray>
</Cells>
<PointData  Scalars="displacement"> 
<DataArray  type="Float64"  Name="displacement"  format="ascii">0.0000000000000000e+00  1.3486294781110651e-03  2.6972589562221302e-03  4.0458884343331936e-03  5.3945179124442570e-03  6.7431473905553213e-03  8.0917768686663821e-03  9.4404063467774489e-03  1.0789035824888511e-02  1.2137665302999574e-02  1.3486294781110639e-02  1.4834924259221701e-02  1.6183553737332768e-02  1.7532183215443836e-02  1.8880812693554905e-02  2.0229442171665966e-02  2.1578071649777032e-02  2.2926701127888097e-02  2.4275330605999155e-02  2.5623960084110217e-02  2.6972589562221275e-02  2.8321219040332336e-02  2.9669848518443405e-02  3.1018477996554477e-02  3.2367107474665535e-02  3.3715736952776597e-02  3.5064366430887665e-02  3.6412995908998720e-02  3.7761625387109782e-02  3.9110254865220830e-02  4.0458884343331884e-02  4.1807513821442925e-02  4.3156143299553966e-02  4.4504772777665007e-02  4.5853402255776041e-02  4.7202031733887075e-02  4.8550661211998095e-02  4.9899290690109122e-02  5.1247920168220142e-02  5.2596549646331162e-02  5.3945179124442182e-02  5.5293808602553181e-02  5.6642438080664180e-02  5.7991067558775179e-02  5.9339697036886185e-02  6.0688326514997198e-02  6.2036955993108212e-02  6.3385585471219211e-02  6.4734214949330182e-02  6.6082844427441167e-02  6.7431473905552153e-02  6.8780103383663138e-02  7.0128732861774137e-02  7.1477362339885137e-02  7.2825991817996136e-02  7.4174621296107135e-02  7.5523250774218134e-02  7.6871880252329119e-02  7.8220509730440146e-02  7.9569139208551160e-02  8.0917768686662200e-02  8.2266398164773227e-02  8.3615027642884268e-02  8.4963657120995295e-02  8.6312286599106308e-02  8.7660916077217321e-02  8.9009545555328320e-02  9.0358175033439347e-02  9.1706804511550361e-02  9.3055433989661401e-02  9.4404063467772484e-02  9.5752692945883552e-02  9.7101322423994607e-02  9.8449951902105662e-02  9.9798581380216703e-02  1.0114721085832777e-01  1.0249584033643883e-01  1.0384446981454991e-01  1.0519309929266100e-01  1.0654172877077209e-01  1.0789035824888318e-01  1.0923898772699428e-01  1.1058761720510536e-01  1.1193624668321651e-01  1.1328487616132768e-01  1.1463350563943885e-01  1.1598213511755001e-01  1.1733076459566118e-01  1.1867939407377236e-01  1.2002802355188352e-01  1.2137665302999467e-01  1.2272528250810584e-01  1.2407391198621701e-01  1.2542254146432819e-01  1.2677117094243937e-01  1.2811980042055063e-01  1.2946842989866189e-01  1.3081705937677313e-01  1.3216568885488439e-01  1.3351431833299562e-01  1.3486294781110691e-01  </DataArray> 
</PointData> 
</Piece>
</UnstructuredGrid>
</VTKFile>