<?xml version="1.0"?>
<VTKFile type="UnstructuredGrid"  version="0.1"  >
<UnstructuredGrid>
<Piece  NumberOfPoints="101" NumberOfCells="100">
<Points>
<DataArray  type="Float64"  NumberOfComponents="3"  format="ascii">0 0 0  0.01 0 0  0.02 0 0  0.03 0 0  0.04 0 0  0.05 0 0  0.06 0 0  0.07000000000000001 0 0  0.08 0 0  0.09 0 0  0.1 0 0  0.11 0 0  0.12 0 0  0.13 0 0  0.14 0 0  0.15 0 0  0.16 0 0  0.17 0 0  0.18 0 0  0.19 0 0  0.2 0 0  0.21 0 0  0.22 0 0  0.23 0 0  0.24 0 0  0.25 0 0  0.26 0 0  0.27 0 0  0.28 0 0  0.29 0 0  0.3 0 0  0.31 0 0  0.32 0 0  0.33 0 0  0.34 0 0  0.35 0 0  0.36 0 0  0.37 0 0  0.38 0 0  0.39 0 0  0.4 0 0  0.41 0 0  0.42 0 0  0.43 0 0  0.44 0 0  0.45 0 0  0.46 0 0  0.47 0 0  0.48 0 0  0.49 0 0  0.5 0 0  0.51 0 0  0.52 0 0  0.53 0 0  0.54 0 0  0.55 0 0  0.5600000000000001 0 0  0.57 0 0  0.58 0 0  0.59 0 0  0.6 0 0  0.61 0 0  0.62 0 0  0.63 0 0  0.64 0 0  0.65 0 0  0.66 0 0  0.67 0 0  0.68 0 0  0.6899999999999999 0 0  0.7 0 0  0.71 0 0  0.72 0 0  0.73 0 0  0.74 0 0  0.75 0 0  0.76 0 0  0.77 0 0  0.78 0 0  0.79 0 0  0.8 0 0  0.8100000000000001 0 0  0.82 0 0  0.83 0 0  0.84 0 0  0.85 0 0  0.86 0 0  0.87 0 0  0.88 0 0  0.89 0 0  0.9 0 0  0.91 0 0  0.92 0 0  0.93 0 0  0.9399999999999999 0 0  0.95 0 0  0.96 0 0  0.97 0 0  0.98 0 0  0.99 0 0  1 0 0  </DataArray>
</Points>
<Cells>
<DataArray  type="UInt32"  Name="connectivity"  format="ascii">0 1  1 2  2 3  3 4  4 5  5 6  6 7  7 8  8 9  9 10  10 11  11 12  12 13  13 14  14 15  15 16  16 17  17 18  18 19  19 20  20 21  21 22  22 23  23 24  24 25  25 26  26 27  27 28  28 29  29 30  30 31  31 32  32 33  33 34  34 35  35 36  36 37  37 38  38 39  39 40  40 41  41 42  42 43  43 44  44 45  45 46  46 47  47 48  48 49  49 50  50 51  51 52  52 53  53 54  54 55  55 56  56 57  57 58  58 59  59 60  60 61  61 62  62 63  63 64  64 65  65 66  66 67  67 68  68 69  69 70  70 71  71 72  72 73  73 74  74 75  75 76  76 77  77 78  78 79  79 80  80 81  81 82  82 83  83 84  84 85  85 86  86 87  87 88  88 89  89 90  90 91  91 92  92 93  93 94  94 95  95 96  96 97  97 98  98 99  99 100  </DataArray>
<DataArray  type="UInt32"  Name="offsets"  format="ascii">2 4 6 8 10 12 14 16 18 20 22 24 26 28 30 32 34 36 38 40 42 44 46 48 50 52 54 56 58 60 62 64 66 68 70 72 74 76 78 80 82 84 86 88 90 92 94 96 98 100 102 104 106 108 110 112 114 116 118 120 122 124 126 128 130 132 134 136 138 140 142 144 146 148 150 152 154 156 158 160 162 164 166 168 170 172 174 176 178 180 182 184 186 188 190 192 194 196 198 200 </DataArray>
<DataArray  type="UInt8"  Name="types"  format="ascii">3 3 3 3 3 3 3 3 3 3 3 3 3 3 3 3 3 3 3 3 3 3 3 3 3 3 3 3 3 3 3 3 3 3 3 3 3 3 3 3 3 3 3 3 3 3 3 3 3 3 3 3 3 3 3 3 3 3 3 3 3 3 3 3 3 3 3 3 3 3 3 3 3 3 3 3 3 3 3 3 3 3 3 3 3 3 3 3 3 3 3 3 3 3 3 3 3 3 3 3 </DataArray>
</Cells>
<PointData  Scalars="displacement"> 
<DataArray  type="Float64"  Name="displacement"  format="ascii">0.0000000000000000e+00  1.5561109362819976e-03  3.1122218725639951e-03  4.6683328088459918e-03  6.2244437451279876e-03  7.7805546814099834e-03  9.3366656176919784e-03  1.0892776553973978e-02  1.2448887490255972e-02  1.4004998426537966e-02  1.5561109362819963e-02  1.7117220299101961e-02  1.8673331235383957e-02  2.0229442171665959e-02  2.1785553107947959e-02  2.3341664044229955e-02  2.4897774980511954e-02  2.6453885916793953e-02  2.8009996853075939e-02  2.9566107789357938e-02  3.1122218725639934e-02  3.2678329661921933e-02  3.4234440598203936e-02  3.5790551534485932e-02  3.7346662470767934e-02  3.8902773407049930e-02  4.0458884343331926e-02  4.2014995279613915e-02  4.3571106215895911e-02  4.5127217152177886e-02  4.6683328088459861e-02  4.8239439024741829e-02  4.9795549961023797e-02  5.1351660897305772e-02  5.2907771833587740e-02  5.4463882769869694e-02  5.6019993706151641e-02  5.7576104642433582e-02  5.9132215578715536e-02  6.0688326514997490e-02  6.2244437451279437e-02  6.3800548387561357e-02  6.5356659323843297e-02  6.6912770260125196e-02  6.8468881196407122e-02  7.0024992132689048e-02  7.1581103068970989e-02  7.3137214005252901e-02  7.4693324941534814e-02  7.6249435877816713e-02  7.7805546814098611e-02  7.9361657750380524e-02  8.0917768686662450e-02  8.2473879622944377e-02  8.4029990559226289e-02  8.5586101495508216e-02  8.7142212431790128e-02  8.8698323368072055e-02  9.0254434304354009e-02  9.1810545240635963e-02  9.3366656176917917e-02  9.4922767113199885e-02  9.6478878049481853e-02  9.8034988985763807e-02  9.9591099922045748e-02  1.0114721085832767e-01  1.0270332179460961e-01  1.0425943273089157e-01  1.0581554366717351e-01  1.0737165460345548e-01  1.0892776553973750e-01  1.1048387647601950e-01  1.1203998741230148e-01  1.1359609834858347e-01  1.1515220928486546e-01  1.1670832022114747e-01  1.1826443115742946e-01  1.1982054209371149e-01  1.2137665302999351e-01  1.2293276396627553e-01  1.2448887490255756e-01  1.2604498583883958e-01  1.2760109677512160e-01  1.2915720771140368e-01  1.3071331864768579e-01  1.3226942958396790e-01  1.3382554052025003e-01  1.3538165145653214e-01  1.3693776239281424e-01  1.3849387332909638e-01  1.4004998426537849e-01  1.4160609520166062e-01  1.4316220613794273e-01  1.4471831707422483e-01  1.4627442801050700e-01  1.4783053894678921e-01  1.4938664988307140e-01  1.5094276081935362e-01  1.5249887175563581e-01  1.5405498269191806e-01  1.5561109362820028e-01  </DataArray> 
</PointData> 
</Piece>
</UnstructuredGrid>
</VTKFile>