<?xml version="1.0"?>
<VTKFile type="UnstructuredGrid"  version="0.1"  >
<UnstructuredGrid>
<Piece  NumberOfPoints="101" NumberOfCells="100">
<Points>
<DataArray  type="Float64"  NumberOfComponents="3"  format="ascii">0 0 0  0.01 0 0  0.02 0 0  0.03 0 0  0.04 0 0  0.05 0 0  0.06 0 0  0.07000000000000001 0 0  0.08 0 0  0.09 0 0  0.1 0 0  0.11 0 0  0.12 0 0  0.13 0 0  0.14 0 0  0.15 0 0  0.16 0 0  0.17 0 0  0.18 0 0  0.19 0 0  0.2 0 0  0.21 0 0  0.22 0 0  0.23 0 0  0.24 0 0  0.25 0 0  0.26 0 0  0.27 0 0  0.28 0 0  0.29 0 0  0.3 0 0  0.31 0 0  0.32 0 0  0.33 0 0  0.34 0 0  0.35 0 0  0.36 0 0  0.37 0 0  0.38 0 0  0.39 0 0  0.4 0 0  0.41 0 0  0.42 0 0  0.43 0 0  0.44 0 0  0.45 0 0  0.46 0 0  0.47 0 0  0.48 0 0  0.49 0 0  0.5 0 0  0.51 0 0  0.52 0 0  0.53 0 0  0.54 0 0  0.55 0 0  0.5600000000000001 0 0  0.57 0 0  0.58 0 0  0.59 0 0  0.6 0 0  0.61 0 0  0.62 0 0  0.63 0 0  0.64 0 0  0.65 0 0  0.66 0 0  0.67 0 0  0.68 0 0  0.6899999999999999 0 0  0.7 0 0  0.71 0 0  0.72 0 0  0.73 0 0  0.74 0 0  0.75 0 0  0.76 0 0  0.77 0 0  0.78 0 0  0.79 0 0  0.8 0 0  0.8100000000000001 0 0  0.82 0 0  0.83 0 0  0.84 0 0  0.85 0 0  0.86 0 0  0.87 0 0  0.88 0 0  0.89 0 0  0.9 0 0  0.91 0 0  0.92 0 0  0.93 0 0  0.9399999999999999 0 0  0.95 0 0  0.96 0 0  0.97 0 0  0.98 0 0  0.99 0 0  1 0 0  </DataArray>
</Points>
<Cells>
<DataArray  type="UInt32"  Name="connectivity"  format="ascii">0 1  1 2  2 3  3 4  4 5  5 6  6 7  7 8  8 9  9 10  10 11  11 12  12 13  13 14  14 15  15 16  16 17  17 18  18 19  19 20  20 21  21 22  22 23  23 24  24 25  25 26  26 27  27 28  28 29  29 30  30 31  31 32  32 33  33 34  34 35  35 36  36 37  37 38  38 39  39 40  40 41  41 42  42 43  43 44  44 45  45 46  46 47  47 48  48 49  49 50  50 51  51 52  52 53  53 54  54 55  55 56  56 57  57 58  58 59  59 60  60 61  61 62  62 63  63 64  64 65  65 66  66 67  67 68  68 69  69 70  70 71  71 72  72 73  73 74  74 75  75 76  76 77  77 78  78 79  79 80  80 81  81 82  82 83  83 84  84 85  85 86  86 87  87 88  88 89  89 90  90 91  91 92  92 93  93 94  94 95  95 96  96 97  97 98  98 99  99 100  </DataArray>
<DataArray  type="UInt32"  Name="offsets"  format="ascii">2 4 6 8 10 12 14 16 18 20 22 24 26 28 30 32 34 36 38 40 42 44 46 48 50 52 54 56 58 60 62 64 66 68 70 72 74 76 78 80 82 84 86 88 90 92 94 96 98 100 102 104 106 108 110 112 114 116 118 120 122 124 126 128 130 132 134 136 138 140 142 144 146 148 150 152 154 156 158 160 162 164 166 168 170 172 174 176 178 180 182 184 186 188 190 192 194 196 198 200 </DataArray>
<DataArray  type="UInt8"  Name="types"  format="ascii">3 3 3 3 3 3 3 3 3 3 3 3 3 3 3 3 3 3 3 3 3 3 3 3 3 3 3 3 3 3 3 3 3 3 3 3 3 3 3 3 3 3 3 3 3 3 3 3 3 3 3 3 3 3 3 3 3 3 3 3 3 3 3 3 3 3 3 3 3 3 3 3 3 3 3 3 3 3 3 3 3 3 3 3 3 3 3 3 3 3 3 3 3 3 3 3 3 3 3 3 </DataArray>
</Cells>
<PointData  Scalars="displacement"> 
<DataArray  type="Float64"  Name="displacement"  format="ascii">0.0000000000000000e+00  3.1122218725639973e-04  6.2244437451279945e-04  9.3366656176919886e-04  1.2448887490255980e-03  1.5561109362819976e-03  1.8673331235383966e-03  2.1785553107947961e-03  2.4897774980511952e-03  2.8009996853075943e-03  3.1122218725639938e-03  3.4234440598203924e-03  3.7346662470767915e-03  4.0458884343331919e-03  4.3571106215895914e-03  4.6683328088459900e-03  4.9795549961023896e-03  5.2907771833587882e-03  5.6019993706151868e-03  5.9132215578715855e-03  6.2244437451279841e-03  6.5356659323843836e-03  6.8468881196407858e-03  7.1581103068971853e-03  7.4693324941535848e-03  7.7805546814099834e-03  8.0917768686663821e-03  8.4029990559227798e-03  8.7142212431791793e-03  9.0254434304355754e-03  9.3366656176919714e-03  9.6478878049483657e-03  9.9591099922047618e-03  1.0270332179461156e-02  1.0581554366717550e-02  1.0892776553973941e-02  1.1203998741230330e-02  1.1515220928486719e-02  1.1826443115743110e-02  1.2137665302999499e-02  1.2448887490255888e-02  1.2760109677512274e-02  1.3071331864768660e-02  1.3382554052025042e-02  1.3693776239281429e-02  1.4004998426537813e-02  1.4316220613794201e-02  1.4627442801050581e-02  1.4938664988306960e-02  1.5249887175563338e-02  1.5561109362819721e-02  1.5872331550076103e-02  1.6183553737332490e-02  1.6494775924588874e-02  1.6805998111845258e-02  1.7117220299101642e-02  1.7428442486358022e-02  1.7739664673614410e-02  1.8050886860870804e-02  1.8362109048127191e-02  1.8673331235383585e-02  1.8984553422639980e-02  1.9295775609896371e-02  1.9606997797152761e-02  1.9918219984409149e-02  2.0229442171665536e-02  2.0540664358921924e-02  2.0851886546178311e-02  2.1163108733434702e-02  2.1474330920691093e-02  2.1785553107947494e-02  2.2096775295203895e-02  2.2407997482460293e-02  2.2719219669716691e-02  2.3030441856973088e-02  2.3341664044229486e-02  2.3652886231485884e-02  2.3964108418742285e-02  2.4275330605998690e-02  2.4586552793255095e-02  2.4897774980511503e-02  2.5208997167767904e-02  2.5520219355024316e-02  2.5831441542280738e-02  2.6142663729537160e-02  2.6453885916793585e-02  2.6765108104050004e-02  2.7076330291306426e-02  2.7387552478562852e-02  2.7698774665819277e-02  2.8009996853075696e-02  2.8321219040332118e-02  2.8632441227588543e-02  2.8943663414844962e-02  2.9254885602101387e-02  2.9566107789357830e-02  2.9877329976614277e-02  3.0188552163870720e-02  3.0499774351127159e-02  3.0810996538383609e-02  3.1122218725640059e-02  </DataArray> 
</PointData> 
</Piece>
</UnstructuredGrid>
</VTKFile>