<?xml version="1.0"?>
<VTKFile type="UnstructuredGrid"  version="0.1"  >
<UnstructuredGrid>
<Piece  NumberOfPoints="101" NumberOfCells="100">
<Points>
<DataArray  type="Float64"  NumberOfComponents="3"  format="ascii">0 0 0  0.01 0 0  0.02 0 0  0.03 0 0  0.04 0 0  0.05 0 0  0.06 0 0  0.07000000000000001 0 0  0.08 0 0  0.09 0 0  0.1 0 0  0.11 0 0  0.12 0 0  0.13 0 0  0.14 0 0  0.15 0 0  0.16 0 0  0.17 0 0  0.18 0 0  0.19 0 0  0.2 0 0  0.21 0 0  0.22 0 0  0.23 0 0  0.24 0 0  0.25 0 0  0.26 0 0  0.27 0 0  0.28 0 0  0.29 0 0  0.3 0 0  0.31 0 0  0.32 0 0  0.33 0 0  0.34 0 0  0.35 0 0  0.36 0 0  0.37 0 0  0.38 0 0  0.39 0 0  0.4 0 0  0.41 0 0  0.42 0 0  0.43 0 0  0.44 0 0  0.45 0 0  0.46 0 0  0.47 0 0  0.48 0 0  0.49 0 0  0.5 0 0  0.51 0 0  0.52 0 0  0.53 0 0  0.54 0 0  0.55 0 0  0.5600000000000001 0 0  0.57 0 0  0.58 0 0  0.59 0 0  0.6 0 0  0.61 0 0  0.62 0 0  0.63 0 0  0.64 0 0  0.65 0 0  0.66 0 0  0.67 0 0  0.68 0 0  0.6899999999999999 0 0  0.7 0 0  0.71 0 0  0.72 0 0  0.73 0 0  0.74 0 0  0.75 0 0  0.76 0 0  0.77 0 0  0.78 0 0  0.79 0 0  0.8 0 0  0.8100000000000001 0 0  0.82 0 0  0.83 0 0  0.84 0 0  0.85 0 0  0.86 0 0  0.87 0 0  0.88 0 0  0.89 0 0  0.9 0 0  0.91 0 0  0.92 0 0  0.93 0 0  0.9399999999999999 0 0  0.95 0 0  0.96 0 0  0.97 0 0  0.98 0 0  0.99 0 0  1 0 0  </DataArray>
</Points>
<Cells>
<DataArray  type="UInt32"  Name="connectivity"  format="ascii">0 1  1 2  2 3  3 4  4 5  5 6  6 7  7 8  8 9  9 10  10 11  11 12  12 13  13 14  14 15  15 16  16 17  17 18  18 19  19 20  20 21  21 22  22 23  23 24  24 25  25 26  26 27  27 28  28 29  29 30  30 31  31 32  32 33  33 34  34 35  35 36  36 37  37 38  38 39  39 40  40 41  41 42  42 43  43 44  44 45  45 46  46 47  47 48  48 49  49 50  50 51  51 52  52 53  53 54  54 55  55 56  56 57  57 58  58 59  59 60  60 61  61 62  62 63  63 64  64 65  65 66  66 67  67 68  68 69  69 70  70 71  71 72  72 73  73 74  74 75  75 76  76 77  77 78  78 79  79 80  80 81  81 82  82 83  83 84  84 85  85 86  86 87  87 88  88 89  89 90  90 91  91 92  92 93  93 94  94 95  95 96  96 97  97 98  98 99  99 100  </DataArray>
<DataArray  type="UInt32"  Name="offsets"  format="ascii">2 4 6 8 10 12 14 16 18 20 22 24 26 28 30 32 34 36 38 40 42 44 46 48 50 52 54 56 58 60 62 64 66 68 70 72 74 76 78 80 82 84 86 88 90 92 94 96 98 100 102 104 106 108 110 112 114 116 118 120 122 124 126 128 130 132 134 136 138 140 142 144 146 148 150 152 154 156 158 160 162 164 166 168 170 172 174 176 178 180 182 184 186 188 190 192 194 196 198 200 </DataArray>
<DataArray  type="UInt8"  Name="types"  format="ascii">3 3 3 3 3 3 3 3 3 3 3 3 3 3 3 3 3 3 3 3 3 3 3 3 3 3 3 3 3 3 3 3 3 3 3 3 3 3 3 3 3 3 3 3 3 3 3 3 3 3 3 3 3 3 3 3 3 3 3 3 3 3 3 3 3 3 3 3 3 3 3 3 3 3 3 3 3 3 3 3 3 3 3 3 3 3 3 3 3 3 3 3 3 3 3 3 3 3 3 3 </DataArray>
</Cells>
<PointData  Scalars="displacement"> 
<DataArray  type="Float64"  Name="displacement"  format="ascii">0.0000000000000000e+00  1.2678729455026573e-06  2.5357458910053150e-06  3.8036188365079708e-06  5.0714917820106274e-06  6.3393647275132862e-06  7.6072376730159415e-06  8.8751106185185994e-06  1.0142983564021258e-05  1.1410856509523915e-05  1.2678729455026576e-05  1.3946602400529234e-05  1.5214475346031893e-05  1.6482348291534555e-05  1.7750221237037223e-05  1.9018094182539880e-05  2.0285967128042547e-05  2.1553840073545214e-05  2.2821713019047875e-05  2.4089585964550538e-05  2.5357458910053202e-05  2.6625331855555866e-05  2.7893204801058540e-05  2.9161077746561204e-05  3.0428950692063864e-05  3.1696823637566532e-05  3.2964696583069199e-05  3.4232569528571873e-05  3.5500442474074540e-05  3.6768315419577194e-05  3.8038388671699884e-05  3.9319288849136071e-05  4.0624288702135802e-05  4.1967792205446581e-05  4.3366091138880661e-05  4.4838335809479494e-05  4.6407857532178836e-05  4.8104061077253429e-05  4.9965252396647358e-05  5.2043043889724798e-05  5.4409524681667397e-05  5.7169518525246552e-05  6.0482782242563294e-05  6.4607129912380536e-05  6.9989968217424052e-05  7.7486537670743197e-05  8.8970858003820915e-05  1.0950769125269562e-04  1.5891287513202366e-04  4.1985497020960102e-04  1.5783565489930255e-02  2.6919456395199992e-01  2.6955605514891084e-01  2.6961289691599771e-01  2.6963525834021101e-01  2.6964745014286529e-01  2.6965529371647812e-01  2.6966087274190192e-01  2.6966511900120316e-01  2.6966851324365754e-01  2.6967132971415103e-01  2.6967373703770742e-01  2.6967584516988785e-01  2.6967772933608386e-01  2.6967944314988801e-01  2.6968102623788626e-01  2.6968250889829998e-01  2.6968391507623868e-01  2.6968526434496887e-01  2.6968657328303774e-01  2.6968785647872673e-01  2.6968912730678601e-01  2.6969039517973165e-01  2.6969166305267722e-01  2.6969293092562274e-01  2.6969419879856826e-01  2.6969546667151384e-01  2.6969673454445947e-01  2.6969800241740505e-01  2.6969927029035068e-01  2.6970053816329637e-01  2.6970180603624200e-01  2.6970307390918774e-01  2.6970434178213354e-01  2.6970560965507934e-01  2.6970687752802514e-01  2.6970814540097099e-01  2.6970941327391684e-01  2.6971068114686270e-01  2.6971194901980849e-01  2.6971321689275429e-01  2.6971448476570015e-01  2.6971575263864594e-01  2.6971702051159180e-01  2.6971828838453771e-01  2.6971955625748373e-01  2.6972082413042975e-01  2.6972209200337577e-01  2.6972335987632179e-01  2.6972462774926775e-01  2.6972589562221383e-01  </DataArray> 
</PointData> 
</Piece>
</UnstructuredGrid>
</VTKFile>