<?xml version="1.0"?>
<VTKFile type="UnstructuredGrid"  version="0.1"  >
<UnstructuredGrid>
<Piece  NumberOfPoints="101" NumberOfCells="100">
<Points>
<DataArray  type="Float64"  NumberOfComponents="3"  format="ascii">0 0 0  0.01 0 0  0.02 0 0  0.03 0 0  0.04 0 0  0.05 0 0  0.06 0 0  0.07000000000000001 0 0  0.08 0 0  0.09 0 0  0.1 0 0  0.11 0 0  0.12 0 0  0.13 0 0  0.14 0 0  0.15 0 0  0.16 0 0  0.17 0 0  0.18 0 0  0.19 0 0  0.2 0 0  0.21 0 0  0.22 0 0  0.23 0 0  0.24 0 0  0.25 0 0  0.26 0 0  0.27 0 0  0.28 0 0  0.29 0 0  0.3 0 0  0.31 0 0  0.32 0 0  0.33 0 0  0.34 0 0  0.35 0 0  0.36 0 0  0.37 0 0  0.38 0 0  0.39 0 0  0.4 0 0  0.41 0 0  0.42 0 0  0.43 0 0  0.44 0 0  0.45 0 0  0.46 0 0  0.47 0 0  0.48 0 0  0.49 0 0  0.5 0 0  0.51 0 0  0.52 0 0  0.53 0 0  0.54 0 0  0.55 0 0  0.5600000000000001 0 0  0.57 0 0  0.58 0 0  0.59 0 0  0.6 0 0  0.61 0 0  0.62 0 0  0.63 0 0  0.64 0 0  0.65 0 0  0.66 0 0  0.67 0 0  0.68 0 0  0.6899999999999999 0 0  0.7 0 0  0.71 0 0  0.72 0 0  0.73 0 0  0.74 0 0  0.75 0 0  0.76 0 0  0.77 0 0  0.78 0 0  0.79 0 0  0.8 0 0  0.8100000000000001 0 0  0.82 0 0  0.83 0 0  0.84 0 0  0.85 0 0  0.86 0 0  0.87 0 0  0.88 0 0  0.89 0 0  0.9 0 0  0.91 0 0  0.92 0 0  0.93 0 0  0.9399999999999999 0 0  0.95 0 0  0.96 0 0  0.97 0 0  0.98 0 0  0.99 0 0  1 0 0  </DataArray>
</Points>
<Cells>
<DataArray  type="UInt32"  Name="connectivity"  format="ascii">0 1  1 2  2 3  3 4  4 5  5 6  6 7  7 8  8 9  9 10  10 11  11 12  12 13  13 14  14 15  15 16  16 17  17 18  18 19  19 20  20 21  21 22  22 23  23 24  24 25  25 26  26 27  27 28  28 29  29 30  30 31  31 32  32 33  33 34  34 35  35 36  36 37  37 38  38 39  39 40  40 41  41 42  42 43  43 44  44 45  45 46  46 47  47 48  48 49  49 50  50 51  51 52  52 53  53 54  54 55  55 56  56 57  57 58  58 59  59 60  60 61  61 62  62 63  63 64  64 65  65 66  66 67  67 68  68 69  69 70  70 71  71 72  72 73  73 74  74 75  75 76  76 77  77 78  78 79  79 80  80 81  81 82  82 83  83 84  84 85  85 86  86 87  87 88  88 89  89 90  90 91  91 92  92 93  93 94  94 95  95 96  96 97  97 98  98 99  99 100  </DataArray>
<DataArray  type="UInt32"  Name="offsets"  format="ascii">2 4 6 8 10 12 14 16 18 20 22 24 26 28 30 32 34 36 38 40 42 44 46 48 50 52 54 56 58 60 62 64 66 68 70 72 74 76 78 80 82 84 86 88 90 92 94 96 98 100 102 104 106 108 110 112 114 116 118 120 122 124 126 128 130 132 134 136 138 140 142 144 146 148 150 152 154 156 158 160 162 164 166 168 170 172 174 176 178 180 182 184 186 188 190 192 194 196 198 200 </DataArray>
<DataArray  type="UInt8"  Name="types"  format="ascii">3 3 3 3 3 3 3 3 3 3 3 3 3 3 3 3 3 3 3 3 3 3 3 3 3 3 3 3 3 3 3 3 3 3 3 3 3 3 3 3 3 3 3 3 3 3 3 3 3 3 3 3 3 3 3 3 3 3 3 3 3 3 3 3 3 3 3 3 3 3 3 3 3 3 3 3 3 3 3 3 3 3 3 3 3 3 3 3 3 3 3 3 3 3 3 3 3 3 3 3 </DataArray>
</Cells>
<PointData  Scalars="displacement"> 
<DataArray  type="Float64"  Name="displacement"  format="ascii">0.0000000000000000e+00  1.4098624820019796e-06  2.8197249640039597e-06  4.2295874460059382e-06  5.6394499280079168e-06  7.0493124100098954e-06  8.4591748920118731e-06  9.8690373740138534e-06  1.1278899856015834e-05  1.2688762338017816e-05  1.4098624820019803e-05  1.5508487302021788e-05  1.6918349784023773e-05  1.8328212266025762e-05  1.9738074748027747e-05  2.1147937230029736e-05  2.2557799712031728e-05  2.3967662194033724e-05  2.5377524676035716e-05  2.6787387158037722e-05  2.8197249640039724e-05  2.9607112122041723e-05  3.1016974604043725e-05  3.2426837086045720e-05  3.3836699568047716e-05  3.5246562050049711e-05  3.6656424532051721e-05  3.8066287014053723e-05  3.9476149496055732e-05  4.0886011978057727e-05  4.2298321179790982e-05  4.3722669818006486e-05  4.5173817062916771e-05  4.6667779995460587e-05  4.8222674917593784e-05  4.9859796785969809e-05  5.1605089797679029e-05  5.3491251773547506e-05  5.5560878562532278e-05  5.7871362654730860e-05  6.0502866461774838e-05  6.3571952985327145e-05  6.7256270270109537e-05  7.1842505084121169e-05  7.7828169341635103e-05  8.6164282241155046e-05  9.8934735642130570e-05  1.2177149605998233e-04  1.7670958383522132e-04  4.6687467579483225e-04  1.7551172533027220e-02  2.5876534054011924e-01  2.5916334415440068e-01  2.5922628723002317e-01  2.5925109042040950e-01  2.5926462377424725e-01  2.5927333418967924e-01  2.5927953151749983e-01  2.5928424929963889e-01  2.5928802100523352e-01  2.5929115104355521e-01  2.5929382662933653e-01  2.5929616986217824e-01  2.5929826428843278e-01  2.5930016945996803e-01  2.5930192939773461e-01  2.5930357776372065e-01  2.5930514116451814e-01  2.5930664135153791e-01  2.5930809675055366e-01  2.5930952357752990e-01  2.5931093670167649e-01  2.5931234656415869e-01  2.5931375642664095e-01  2.5931516628912316e-01  2.5931657615160542e-01  2.5931798601408756e-01  2.5931939587656982e-01  2.5932080573905214e-01  2.5932221560153446e-01  2.5932362546401672e-01  2.5932503532649903e-01  2.5932644518898140e-01  2.5932785505146383e-01  2.5932926491394626e-01  2.5933067477642874e-01  2.5933208463891122e-01  2.5933349450139370e-01  2.5933490436387618e-01  2.5933631422635867e-01  2.5933772408884109e-01  2.5933913395132357e-01  2.5934054381380611e-01  2.5934195367628854e-01  2.5934336353877108e-01  2.5934477340125373e-01  2.5934618326373637e-01  2.5934759312621902e-01  2.5934900298870173e-01  2.5935041285118443e-01  2.5935182271366714e-01  </DataArray> 
</PointData> 
</Piece>
</UnstructuredGrid>
</VTKFile>