<?xml version="1.0"?>
<VTKFile type="UnstructuredGrid"  version="0.1"  >
<UnstructuredGrid>
<Piece  NumberOfPoints="101" NumberOfCells="100">
<Points>
<DataArray  type="Float64"  NumberOfComponents="3"  format="ascii">0 0 0  0.01 0 0  0.02 0 0  0.03 0 0  0.04 0 0  0.05 0 0  0.06 0 0  0.07000000000000001 0 0  0.08 0 0  0.09 0 0  0.1 0 0  0.11 0 0  0.12 0 0  0.13 0 0  0.14 0 0  0.15 0 0  0.16 0 0  0.17 0 0  0.18 0 0  0.19 0 0  0.2 0 0  0.21 0 0  0.22 0 0  0.23 0 0  0.24 0 0  0.25 0 0  0.26 0 0  0.27 0 0  0.28 0 0  0.29 0 0  0.3 0 0  0.31 0 0  0.32 0 0  0.33 0 0  0.34 0 0  0.35 0 0  0.36 0 0  0.37 0 0  0.38 0 0  0.39 0 0  0.4 0 0  0.41 0 0  0.42 0 0  0.43 0 0  0.44 0 0  0.45 0 0  0.46 0 0  0.47 0 0  0.48 0 0  0.49 0 0  0.5 0 0  0.51 0 0  0.52 0 0  0.53 0 0  0.54 0 0  0.55 0 0  0.5600000000000001 0 0  0.57 0 0  0.58 0 0  0.59 0 0  0.6 0 0  0.61 0 0  0.62 0 0  0.63 0 0  0.64 0 0  0.65 0 0  0.66 0 0  0.67 0 0  0.68 0 0  0.6899999999999999 0 0  0.7 0 0  0.71 0 0  0.72 0 0  0.73 0 0  0.74 0 0  0.75 0 0  0.76 0 0  0.77 0 0  0.78 0 0  0.79 0 0  0.8 0 0  0.8100000000000001 0 0  0.82 0 0  0.83 0 0  0.84 0 0  0.85 0 0  0.86 0 0  0.87 0 0  0.88 0 0  0.89 0 0  0.9 0 0  0.91 0 0  0.92 0 0  0.93 0 0  0.9399999999999999 0 0  0.95 0 0  0.96 0 0  0.97 0 0  0.98 0 0  0.99 0 0  1 0 0  </DataArray>
</Points>
<Cells>
<DataArray  type="UInt32"  Name="connectivity"  format="ascii">0 1  1 2  2 3  3 4  4 5  5 6  6 7  7 8  8 9  9 10  10 11  11 12  12 13  13 14  14 15  15 16  16 17  17 18  18 19  19 20  20 21  21 22  22 23  23 24  24 25  25 26  26 27  27 28  28 29  29 30  30 31  31 32  32 33  33 34  34 35  35 36  36 37  37 38  38 39  39 40  40 41  41 42  42 43  43 44  44 45  45 46  46 47  47 48  48 49  49 50  50 51  51 52  52 53  53 54  54 55  55 56  56 57  57 58  58 59  59 60  60 61  61 62  62 63  63 64  64 65  65 66  66 67  67 68  68 69  69 70  70 71  71 72  72 73  73 74  74 75  75 76  76 77  77 78  78 79  79 80  80 81  81 82  82 83  83 84  84 85  85 86  86 87  87 88  88 89  89 90  90 91  91 92  92 93  93 94  94 95  95 96  96 97  97 98  98 99  99 100  </DataArray>
<DataArray  type="UInt32"  Name="offsets"  format="ascii">2 4 6 8 10 12 14 16 18 20 22 24 26 28 30 32 34 36 38 40 42 44 46 48 50 52 54 56 58 60 62 64 66 68 70 72 74 76 78 80 82 84 86 88 90 92 94 96 98 100 102 104 106 108 110 112 114 116 118 120 122 124 126 128 130 132 134 136 138 140 142 144 146 148 150 152 154 156 158 160 162 164 166 168 170 172 174 176 178 180 182 184 186 188 190 192 194 196 198 200 </DataArray>
<DataArray  type="UInt8"  Name="types"  format="ascii">3 3 3 3 3 3 3 3 3 3 3 3 3 3 3 3 3 3 3 3 3 3 3 3 3 3 3 3 3 3 3 3 3 3 3 3 3 3 3 3 3 3 3 3 3 3 3 3 3 3 3 3 3 3 3 3 3 3 3 3 3 3 3 3 3 3 3 3 3 3 3 3 3 3 3 3 3 3 3 3 3 3 3 3 3 3 3 3 3 3 3 3 3 3 3 3 3 3 3 3 </DataArray>
</Cells>
<PointData  Scalars="displacement"> 
<DataArray  type="Float64"  Name="displacement"  format="ascii">0.0000000000000000e+00  1.6598516653674631e-03  3.3197033307349258e-03  4.9795549961023870e-03  6.6394066614698473e-03  8.2992583268373093e-03  9.9591099922047687e-03  1.1618961657572230e-02  1.3278813322939691e-02  1.4938664988307152e-02  1.6598516653674615e-02  1.8258368319042078e-02  1.9918219984409541e-02  2.1578071649777007e-02  2.3237923315144477e-02  2.4897774980511937e-02  2.6557626645879403e-02  2.8217478311246869e-02  2.9877329976614329e-02  3.1537181641981785e-02  3.3197033307349244e-02  3.4856884972716703e-02  3.6516736638084177e-02  3.8176588303451643e-02  3.9836439968819103e-02  4.1496291634186569e-02  4.3156143299554028e-02  4.4815994964921488e-02  4.6475846630288954e-02  4.8135698295656393e-02  4.9795549961023838e-02  5.1455401626391277e-02  5.3115253291758716e-02  5.4775104957126147e-02  5.6434956622493579e-02  5.8094808287860997e-02  5.9754659953228408e-02  6.1414511618595811e-02  6.3074363283963236e-02  6.4734214949330640e-02  6.6394066614698044e-02  6.8053918280065420e-02  6.9713769945432810e-02  7.1373621610800186e-02  7.3033473276167576e-02  7.4693324941534966e-02  7.6353176606902370e-02  7.8013028272269733e-02  7.9672879937637109e-02  8.1332731603004457e-02  8.2992583268371820e-02  8.4652434933739196e-02  8.6312286599106586e-02  8.7972138264473962e-02  8.9631989929841338e-02  9.1291841595208714e-02  9.2951693260576077e-02  9.4611544925943467e-02  9.6271396591310884e-02  9.7931248256678288e-02  9.9591099922045720e-02  1.0125095158741315e-01  1.0291080325278058e-01  1.0457065491814799e-01  1.0623050658351539e-01  1.0789035824888280e-01  1.0955020991425019e-01  1.1121006157961759e-01  1.1286991324498498e-01  1.1452976491035240e-01  1.1618961657571990e-01  1.1784946824108737e-01  1.1950931990645484e-01  1.2116917157182232e-01  1.2282902323718974e-01  1.2448887490255721e-01  1.2614872656792467e-01  1.2780857823329214e-01  1.2946842989865964e-01  1.3112828156402714e-01  1.3278813322939462e-01  1.3444798489476212e-01  1.3610783656012965e-01  1.3776768822549723e-01  1.3942753989086479e-01  1.4108739155623237e-01  1.4274724322159998e-01  1.4440709488696757e-01  1.4606694655233518e-01  1.4772679821770276e-01  1.4938664988307032e-01  1.5104650154843791e-01  1.5270635321380549e-01  1.5436620487917310e-01  1.5602605654454071e-01  1.5768590820990841e-01  1.5934575987527613e-01  1.6100561154064380e-01  1.6266546320601152e-01  1.6432531487137925e-01  1.6598516653674697e-01  </DataArray> 
</PointData> 
</Piece>
</UnstructuredGrid>
</VTKFile>