<?xml version="1.0"?>
<VTKFile type="UnstructuredGrid"  version="0.1"  >
<UnstructuredGrid>
<Piece  NumberOfPoints="101" NumberOfCells="100">
<Points>
<DataArray  type="Float64"  NumberOfComponents="3"  format="ascii">0 0 0  0.01 0 0  0.02 0 0  0.03 0 0  0.04 0 0  0.05 0 0  0.06 0 0  0.07000000000000001 0 0  0.08 0 0  0.09 0 0  0.1 0 0  0.11 0 0  0.12 0 0  0.13 0 0  0.14 0 0  0.15 0 0  0.16 0 0  0.17 0 0  0.18 0 0  0.19 0 0  0.2 0 0  0.21 0 0  0.22 0 0  0.23 0 0  0.24 0 0  0.25 0 0  0.26 0 0  0.27 0 0  0.28 0 0  0.29 0 0  0.3 0 0  0.31 0 0  0.32 0 0  0.33 0 0  0.34 0 0  0.35 0 0  0.36 0 0  0.37 0 0  0.38 0 0  0.39 0 0  0.4 0 0  0.41 0 0  0.42 0 0  0.43 0 0  0.44 0 0  0.45 0 0  0.46 0 0  0.47 0 0  0.48 0 0  0.49 0 0  0.5 0 0  0.51 0 0  0.52 0 0  0.53 0 0  0.54 0 0  0.55 0 0  0.5600000000000001 0 0  0.57 0 0  0.58 0 0  0.59 0 0  0.6 0 0  0.61 0 0  0.62 0 0  0.63 0 0  0.64 0 0  0.65 0 0  0.66 0 0  0.67 0 0  0.68 0 0  0.6899999999999999 0 0  0.7 0 0  0.71 0 0  0.72 0 0  0.73 0 0  0.74 0 0  0.75 0 0  0.76 0 0  0.77 0 0  0.78 0 0  0.79 0 0  0.8 0 0  0.8100000000000001 0 0  0.82 0 0  0.83 0 0  0.84 0 0  0.85 0 0  0.86 0 0  0.87 0 0  0.88 0 0  0.89 0 0  0.9 0 0  0.91 0 0  0.92 0 0  0.93 0 0  0.9399999999999999 0 0  0.95 0 0  0.96 0 0  0.97 0 0  0.98 0 0  0.99 0 0  1 0 0  </DataArray>
</Points>
<Cells>
<DataArray  type="UInt32"  Name="connectivity"  format="ascii">0 1  1 2  2 3  3 4  4 5  5 6  6 7  7 8  8 9  9 10  10 11  11 12  12 13  13 14  14 15  15 16  16 17  17 18  18 19  19 20  20 21  21 22  22 23  23 24  24 25  25 26  26 27  27 28  28 29  29 30  30 31  31 32  32 33  33 34  34 35  35 36  36 37  37 38  38 39  39 40  40 41  41 42  42 43  43 44  44 45  45 46  46 47  47 48  48 49  49 50  50 51  51 52  52 53  53 54  54 55  55 56  56 57  57 58  58 59  59 60  60 61  61 62  62 63  63 64  64 65  65 66  66 67  67 68  68 69  69 70  70 71  71 72  72 73  73 74  74 75  75 76  76 77  77 78  78 79  79 80  80 81  81 82  82 83  83 84  84 85  85 86  86 87  87 88  88 89  89 90  90 91  91 92  92 93  93 94  94 95  95 96  96 97  97 98  98 99  99 100  </DataArray>
<DataArray  type="UInt32"  Name="offsets"  format="ascii">2 4 6 8 10 12 14 16 18 20 22 24 26 28 30 32 34 36 38 40 42 44 46 48 50 52 54 56 58 60 62 64 66 68 70 72 74 76 78 80 82 84 86 88 90 92 94 96 98 100 102 104 106 108 110 112 114 116 118 120 122 124 126 128 130 132 134 136 138 140 142 144 146 148 150 152 154 156 158 160 162 164 166 168 170 172 174 176 178 180 182 184 186 188 190 192 194 196 198 200 </DataArray>
<DataArray  type="UInt8"  Name="types"  format="ascii">3 3 3 3 3 3 3 3 3 3 3 3 3 3 3 3 3 3 3 3 3 3 3 3 3 3 3 3 3 3 3 3 3 3 3 3 3 3 3 3 3 3 3 3 3 3 3 3 3 3 3 3 3 3 3 3 3 3 3 3 3 3 3 3 3 3 3 3 3 3 3 3 3 3 3 3 3 3 3 3 3 3 3 3 3 3 3 3 3 3 3 3 3 3 3 3 3 3 3 3 </DataArray>
</Cells>
<PointData  Scalars="displacement"> 
<DataArray  type="Float64"  Name="displacement"  format="ascii">0.0000000000000000e+00  4.1496291634186578e-04  8.2992583268373145e-04  1.2448887490255967e-03  1.6598516653674618e-03  2.0748145817093273e-03  2.4897774980511922e-03  2.9047404143930575e-03  3.3197033307349228e-03  3.7346662470767880e-03  4.1496291634186538e-03  4.5645920797605195e-03  4.9795549961023852e-03  5.3945179124442518e-03  5.8094808287861193e-03  6.2244437451279841e-03  6.6394066614698507e-03  7.0543695778117173e-03  7.4693324941535822e-03  7.8842954104954462e-03  8.2992583268373110e-03  8.7142212431791759e-03  9.1291841595210442e-03  9.5441470758629108e-03  9.9591099922047756e-03  1.0374072908546642e-02  1.0789035824888507e-02  1.1203998741230372e-02  1.1618961657572239e-02  1.2033924573914098e-02  1.2448887490255960e-02  1.2863850406597819e-02  1.3278813322939679e-02  1.3693776239281537e-02  1.4108739155623395e-02  1.4523702071965249e-02  1.4938664988307102e-02  1.5353627904648953e-02  1.5768590820990809e-02  1.6183553737332660e-02  1.6598516653674511e-02  1.7013479570016355e-02  1.7428442486358203e-02  1.7843405402700047e-02  1.8258368319041894e-02  1.8673331235383742e-02  1.9088294151725593e-02  1.9503257068067433e-02  1.9918219984409277e-02  2.0333182900751114e-02  2.0748145817092955e-02  2.1163108733434799e-02  2.1578071649776646e-02  2.1993034566118490e-02  2.2407997482460335e-02  2.2822960398802179e-02  2.3237923315144019e-02  2.3652886231485867e-02  2.4067849147827721e-02  2.4482812064169572e-02  2.4897774980511430e-02  2.5312737896853288e-02  2.5727700813195146e-02  2.6142663729536997e-02  2.6557626645878848e-02  2.6972589562220699e-02  2.7387552478562546e-02  2.7802515394904397e-02  2.8217478311246245e-02  2.8632441227588099e-02  2.9047404143929974e-02  2.9462367060271843e-02  2.9877329976613711e-02  3.0292292892955579e-02  3.0707255809297434e-02  3.1122218725639302e-02  3.1537181641981167e-02  3.1952144558323035e-02  3.2367107474664911e-02  3.2782070391006786e-02  3.3197033307348654e-02  3.3611996223690530e-02  3.4026959140032412e-02  3.4441922056374308e-02  3.4856884972716197e-02  3.5271847889058093e-02  3.5686810805399996e-02  3.6101773721741892e-02  3.6516736638083795e-02  3.6931699554425691e-02  3.7346662470767580e-02  3.7761625387109476e-02  3.8176588303451373e-02  3.8591551219793276e-02  3.9006514136135179e-02  3.9421477052477102e-02  3.9836439968819033e-02  4.0251402885160950e-02  4.0666365801502881e-02  4.1081328717844812e-02  4.1496291634186742e-02  </DataArray> 
</PointData> 
</Piece>
</UnstructuredGrid>
</VTKFile>