<?xml version="1.0"?>
<VTKFile type="UnstructuredGrid"  version="0.1"  >
<UnstructuredGrid>
<Piece  NumberOfPoints="101" NumberOfCells="100">
<Points>
<DataArray  type="Float64"  NumberOfComponents="3"  format="ascii">0 0 0  0.01 0 0  0.02 0 0  0.03 0 0  0.04 0 0  0.05 0 0  0.06 0 0  0.07000000000000001 0 0  0.08 0 0  0.09 0 0  0.1 0 0  0.11 0 0  0.12 0 0  0.13 0 0  0.14 0 0  0.15 0 0  0.16 0 0  0.17 0 0  0.18 0 0  0.19 0 0  0.2 0 0  0.21 0 0  0.22 0 0  0.23 0 0  0.24 0 0  0.25 0 0  0.26 0 0  0.27 0 0  0.28 0 0  0.29 0 0  0.3 0 0  0.31 0 0  0.32 0 0  0.33 0 0  0.34 0 0  0.35 0 0  0.36 0 0  0.37 0 0  0.38 0 0  0.39 0 0  0.4 0 0  0.41 0 0  0.42 0 0  0.43 0 0  0.44 0 0  0.45 0 0  0.46 0 0  0.47 0 0  0.48 0 0  0.49 0 0  0.5 0 0  0.51 0 0  0.52 0 0  0.53 0 0  0.54 0 0  0.55 0 0  0.5600000000000001 0 0  0.57 0 0  0.58 0 0  0.59 0 0  0.6 0 0  0.61 0 0  0.62 0 0  0.63 0 0  0.64 0 0  0.65 0 0  0.66 0 0  0.67 0 0  0.68 0 0  0.6899999999999999 0 0  0.7 0 0  0.71 0 0  0.72 0 0  0.73 0 0  0.74 0 0  0.75 0 0  0.76 0 0  0.77 0 0  0.78 0 0  0.79 0 0  0.8 0 0  0.8100000000000001 0 0  0.82 0 0  0.83 0 0  0.84 0 0  0.85 0 0  0.86 0 0  0.87 0 0  0.88 0 0  0.89 0 0  0.9 0 0  0.91 0 0  0.92 0 0  0.93 0 0  0.9399999999999999 0 0  0.95 0 0  0.96 0 0  0.97 0 0  0.98 0 0  0.99 0 0  1 0 0  </DataArray>
</Points>
<Cells>
<DataArray  type="UInt32"  Name="connectivity"  format="ascii">0 1  1 2  2 3  3 4  4 5  5 6  6 7  7 8  8 9  9 10  10 11  11 12  12 13  13 14  14 15  15 16  16 17  17 18  18 19  19 20  20 21  21 22  22 23  23 24  24 25  25 26  26 27  27 28  28 29  29 30  30 31  31 32  32 33  33 34  34 35  35 36  36 37  37 38  38 39  39 40  40 41  41 42  42 43  43 44  44 45  45 46  46 47  47 48  48 49  49 50  50 51  51 52  52 53  53 54  54 55  55 56  56 57  57 58  58 59  59 60  60 61  61 62  62 63  63 64  64 65  65 66  66 67  67 68  68 69  69 70  70 71  71 72  72 73  73 74  74 75  75 76  76 77  77 78  78 79  79 80  80 81  81 82  82 83  83 84  84 85  85 86  86 87  87 88  88 89  89 90  90 91  91 92  92 93  93 94  94 95  95 96  96 97  97 98  98 99  99 100  </DataArray>
<DataArray  type="UInt32"  Name="offsets"  format="ascii">2 4 6 8 10 12 14 16 18 20 22 24 26 28 30 32 34 36 38 40 42 44 46 48 50 52 54 56 58 60 62 64 66 68 70 72 74 76 78 80 82 84 86 88 90 92 94 96 98 100 102 104 106 108 110 112 114 116 118 120 122 124 126 128 130 132 134 136 138 140 142 144 146 148 150 152 154 156 158 160 162 164 166 168 170 172 174 176 178 180 182 184 186 188 190 192 194 196 198 200 </DataArray>
<DataArray  type="UInt8"  Name="types"  format="ascii">3 3 3 3 3 3 3 3 3 3 3 3 3 3 3 3 3 3 3 3 3 3 3 3 3 3 3 3 3 3 3 3 3 3 3 3 3 3 3 3 3 3 3 3 3 3 3 3 3 3 3 3 3 3 3 3 3 3 3 3 3 3 3 3 3 3 3 3 3 3 3 3 3 3 3 3 3 3 3 3 3 3 3 3 3 3 3 3 3 3 3 3 3 3 3 3 3 3 3 3 </DataArray>
</Cells>
<PointData  Scalars="displacement"> 
<DataArray  type="Float64"  Name="displacement"  format="ascii">0.0000000000000000e+00  1.8673331235383986e-03  3.7346662470767967e-03  5.6019993706151929e-03  7.4693324941535891e-03  9.3366656176919853e-03  1.1203998741230381e-02  1.3071331864768779e-02  1.4938664988307173e-02  1.6805998111845567e-02  1.8673331235383967e-02  2.0540664358922361e-02  2.2407997482460758e-02  2.4275330605999158e-02  2.6142663729537562e-02  2.8009996853075952e-02  2.9877329976614346e-02  3.1744663100152747e-02  3.3611996223691133e-02  3.5479329347229534e-02  3.7346662470767920e-02  3.9213995594306314e-02  4.1081328717844715e-02  4.2948661841383115e-02  4.4815994964921516e-02  4.6683328088459909e-02  4.8550661211998303e-02  5.0417994335536689e-02  5.2285327459075090e-02  5.4152660582613456e-02  5.6019993706151842e-02  5.7887326829690208e-02  5.9754659953228581e-02  6.1621993076766940e-02  6.3489326200305313e-02  6.5356659323843658e-02  6.7223992447381989e-02  6.9091325570920320e-02  7.0958658694458665e-02  7.2825991817996996e-02  7.4693324941535327e-02  7.6560658065073645e-02  7.8427991188611948e-02  8.0295324312150251e-02  8.2162657435688569e-02  8.4029990559226872e-02  8.5897323682765189e-02  8.7764656806303479e-02  8.9631989929841768e-02  9.1499323053380044e-02  9.3366656176918347e-02  9.5233989300456637e-02  9.7101322423994940e-02  9.8968655547533257e-02  1.0083598867107156e-01  1.0270332179460986e-01  1.0457065491814817e-01  1.0643798804168648e-01  1.0830532116522483e-01  1.1017265428876317e-01  1.1203998741230152e-01  1.1390732053583988e-01  1.1577465365937822e-01  1.1764198678291658e-01  1.1950931990645491e-01  1.2137665302999323e-01  1.2324398615353156e-01  1.2511131927706992e-01  1.2697865240060824e-01  1.2884598552414656e-01  1.3071331864768498e-01  1.3258065177122338e-01  1.3444798489476179e-01  1.3631531801830019e-01  1.3818265114183856e-01  1.4004998426537696e-01  1.4191731738891536e-01  1.4378465051245373e-01  1.4565198363599219e-01  1.4751931675953062e-01  1.4938664988306904e-01  1.5125398300660745e-01  1.5312131613014590e-01  1.5498864925368444e-01  1.5685598237722295e-01  1.5872331550076149e-01  1.6059064862430003e-01  1.6245798174783854e-01  1.6432531487137711e-01  1.6619264799491565e-01  1.6805998111845416e-01  1.6992731424199267e-01  1.7179464736553121e-01  1.7366198048906975e-01  1.7552931361260835e-01  1.7739664673614697e-01  1.7926397985968567e-01  1.8113131298322432e-01  1.8299864610676297e-01  1.8486597923030165e-01  1.8673331235384033e-01  </DataArray> 
</PointData> 
</Piece>
</UnstructuredGrid>
</VTKFile>