<?xml version="1.0"?>
<VTKFile type="UnstructuredGrid"  version="0.1"  >
<UnstructuredGrid>
<Piece  NumberOfPoints="101" NumberOfCells="100">
<Points>
<DataArray  type="Float64"  NumberOfComponents="3"  format="ascii">0 0 0  0.01 0 0  0.02 0 0  0.03 0 0  0.04 0 0  0.05 0 0  0.06 0 0  0.07000000000000001 0 0  0.08 0 0  0.09 0 0  0.1 0 0  0.11 0 0  0.12 0 0  0.13 0 0  0.14 0 0  0.15 0 0  0.16 0 0  0.17 0 0  0.18 0 0  0.19 0 0  0.2 0 0  0.21 0 0  0.22 0 0  0.23 0 0  0.24 0 0  0.25 0 0  0.26 0 0  0.27 0 0  0.28 0 0  0.29 0 0  0.3 0 0  0.31 0 0  0.32 0 0  0.33 0 0  0.34 0 0  0.35 0 0  0.36 0 0  0.37 0 0  0.38 0 0  0.39 0 0  0.4 0 0  0.41 0 0  0.42 0 0  0.43 0 0  0.44 0 0  0.45 0 0  0.46 0 0  0.47 0 0  0.48 0 0  0.49 0 0  0.5 0 0  0.51 0 0  0.52 0 0  0.53 0 0  0.54 0 0  0.55 0 0  0.5600000000000001 0 0  0.57 0 0  0.58 0 0  0.59 0 0  0.6 0 0  0.61 0 0  0.62 0 0  0.63 0 0  0.64 0 0  0.65 0 0  0.66 0 0  0.67 0 0  0.68 0 0  0.6899999999999999 0 0  0.7 0 0  0.71 0 0  0.72 0 0  0.73 0 0  0.74 0 0  0.75 0 0  0.76 0 0  0.77 0 0  0.78 0 0  0.79 0 0  0.8 0 0  0.8100000000000001 0 0  0.82 0 0  0.83 0 0  0.84 0 0  0.85 0 0  0.86 0 0  0.87 0 0  0.88 0 0  0.89 0 0  0.9 0 0  0.91 0 0  0.92 0 0  0.93 0 0  0.9399999999999999 0 0  0.95 0 0  0.96 0 0  0.97 0 0  0.98 0 0  0.99 0 0  1 0 0  </DataArray>
</Points>
<Cells>
<DataArray  type="UInt32"  Name="connectivity"  format="ascii">0 1  1 2  2 3  3 4  4 5  5 6  6 7  7 8  8 9  9 10  10 11  11 12  12 13  13 14  14 15  15 16  16 17  17 18  18 19  19 20  20 21  21 22  22 23  23 24  24 25  25 26  26 27  27 28  28 29  29 30  30 31  31 32  32 33  33 34  34 35  35 36  36 37  37 38  38 39  39 40  40 41  41 42  42 43  43 44  44 45  45 46  46 47  47 48  48 49  49 50  50 51  51 52  52 53  53 54  54 55  55 56  56 57  57 58  58 59  59 60  60 61  61 62  62 63  63 64  64 65  65 66  66 67  67 68  68 69  69 70  70 71  71 72  72 73  73 74  74 75  75 76  76 77  77 78  78 79  79 80  80 81  81 82  82 83  83 84  84 85  85 86  86 87  87 88  88 89  89 90  90 91  91 92  92 93  93 94  94 95  95 96  96 97  97 98  98 99  99 100  </DataArray>
<DataArray  type="UInt32"  Name="offsets"  format="ascii">2 4 6 8 10 12 14 16 18 20 22 24 26 28 30 32 34 36 38 40 42 44 46 48 50 52 54 56 58 60 62 64 66 68 70 72 74 76 78 80 82 84 86 88 90 92 94 96 98 100 102 104 106 108 110 112 114 116 118 120 122 124 126 128 130 132 134 136 138 140 142 144 146 148 150 152 154 156 158 160 162 164 166 168 170 172 174 176 178 180 182 184 186 188 190 192 194 196 198 200 </DataArray>
<DataArray  type="UInt8"  Name="types"  format="ascii">3 3 3 3 3 3 3 3 3 3 3 3 3 3 3 3 3 3 3 3 3 3 3 3 3 3 3 3 3 3 3 3 3 3 3 3 3 3 3 3 3 3 3 3 3 3 3 3 3 3 3 3 3 3 3 3 3 3 3 3 3 3 3 3 3 3 3 3 3 3 3 3 3 3 3 3 3 3 3 3 3 3 3 3 3 3 3 3 3 3 3 3 3 3 3 3 3 3 3 3 </DataArray>
</Cells>
<PointData  Scalars="displacement"> 
<DataArray  type="Float64"  Name="displacement"  format="ascii">0.0000000000000000e+00  1.5937522941055406e-06  3.1875045882110807e-06  4.7812568823166196e-06  6.3750091764221597e-06  7.9687614705277007e-06  9.5625137646332375e-06  1.1156266058738778e-05  1.2750018352844316e-05  1.4343770646949856e-05  1.5937522941055401e-05  1.7531275235160942e-05  1.9125027529266485e-05  2.0718779823372029e-05  2.2312532117477569e-05  2.3906284411583109e-05  2.5500036705688656e-05  2.7093788999794193e-05  2.8687541293899736e-05  3.0281293588005273e-05  3.1875045882110810e-05  3.3468798176216343e-05  3.5062550470321883e-05  3.6656302764427423e-05  3.8250055058532963e-05  3.9843807352638497e-05  4.1437559646744037e-05  4.3031311940849577e-05  4.4625064234955124e-05  4.6218816529060644e-05  4.7815334671065887e-05  4.9425462565623766e-05  5.1065884436682101e-05  5.2754706489503371e-05  5.4512407953921291e-05  5.6363061309665300e-05  5.8335994682108872e-05  6.0468170702444087e-05  6.2807741039972939e-05  6.5419583946244798e-05  6.8394317498603928e-05  7.1863708130783923e-05  7.6028574704505635e-05  8.1212996837477303e-05  8.7979377434123742e-05  9.7402778104142750e-05  1.1183889486332543e-04  1.3765427740631379e-04  1.9975799641671274e-04  5.2776961945336565e-04  1.9840389999621032e-02  2.4832066544477899e-01  2.4876520954313341e-01  2.4883600197546429e-01  2.4886395486943766e-01  2.4887922081270872e-01  2.4888905150604876e-01  2.4889604826194242e-01  2.4890137588506442e-01  2.4890563589366388e-01  2.4890917165069806e-01  2.4891219438600098e-01  2.4891484189200813e-01  2.4891720847023921e-01  2.4891936134963860e-01  2.4892135023334042e-01  2.4892321313368865e-01  2.4892498009999947e-01  2.4892667570172897e-01  2.4892832075504526e-01  2.4892993358266896e-01  2.4893153098858245e-01  2.4893312474087662e-01  2.4893471849317081e-01  2.4893631224546500e-01  2.4893790599775917e-01  2.4893949975005342e-01  2.4894109350234769e-01  2.4894268725464197e-01  2.4894428100693622e-01  2.4894587475923050e-01  2.4894746851152477e-01  2.4894906226381913e-01  2.4895065601611358e-01  2.4895224976840796e-01  2.4895384352070243e-01  2.4895543727299685e-01  2.4895703102529129e-01  2.4895862477758576e-01  2.4896021852988021e-01  2.4896181228217462e-01  2.4896340603446909e-01  2.4896499978676354e-01  2.4896659353905801e-01  2.4896818729135253e-01  2.4896978104364714e-01  2.4897137479594178e-01  2.4897296854823642e-01  2.4897456230053105e-01  2.4897615605282572e-01  2.4897774980512047e-01  </DataArray> 
</PointData> 
</Piece>
</UnstructuredGrid>
</VTKFile>