<?xml version="1.0"?>
<VTKFile type="UnstructuredGrid"  version="0.1"  >
<UnstructuredGrid>
<Piece  NumberOfPoints="101" NumberOfCells="100">
<Points>
<DataArray  type="Float64"  NumberOfComponents="3"  format="ascii">0 0 0  0.01 0 0  0.02 0 0  0.03 0 0  0.04 0 0  0.05 0 0  0.06 0 0  0.07000000000000001 0 0  0.08 0 0  0.09 0 0  0.1 0 0  0.11 0 0  0.12 0 0  0.13 0 0  0.14 0 0  0.15 0 0  0.16 0 0  0.17 0 0  0.18 0 0  0.19 0 0  0.2 0 0  0.21 0 0  0.22 0 0  0.23 0 0  0.24 0 0  0.25 0 0  0.26 0 0  0.27 0 0  0.28 0 0  0.29 0 0  0.3 0 0  0.31 0 0  0.32 0 0  0.33 0 0  0.34 0 0  0.35 0 0  0.36 0 0  0.37 0 0  0.38 0 0  0.39 0 0  0.4 0 0  0.41 0 0  0.42 0 0  0.43 0 0  0.44 0 0  0.45 0 0  0.46 0 0  0.47 0 0  0.48 0 0  0.49 0 0  0.5 0 0  0.51 0 0  0.52 0 0  0.53 0 0  0.54 0 0  0.55 0 0  0.5600000000000001 0 0  0.57 0 0  0.58 0 0  0.59 0 0  0.6 0 0  0.61 0 0  0.62 0 0  0.63 0 0  0.64 0 0  0.65 0 0  0.66 0 0  0.67 0 0  0.68 0 0  0.6899999999999999 0 0  0.7 0 0  0.71 0 0  0.72 0 0  0.73 0 0  0.74 0 0  0.75 0 0  0.76 0 0  0.77 0 0  0.78 0 0  0.79 0 0  0.8 0 0  0.8100000000000001 0 0  0.82 0 0  0.83 0 0  0.84 0 0  0.85 0 0  0.86 0 0  0.87 0 0  0.88 0 0  0.89 0 0  0.9 0 0  0.91 0 0  0.92 0 0  0.93 0 0  0.9399999999999999 0 0  0.95 0 0  0.96 0 0  0.97 0 0  0.98 0 0  0.99 0 0  1 0 0  </DataArray>
</Points>
<Cells>
<DataArray  type="UInt32"  Name="connectivity"  format="ascii">0 1  1 2  2 3  3 4  4 5  5 6  6 7  7 8  8 9  9 10  10 11  11 12  12 13  13 14  14 15  15 16  16 17  17 18  18 19  19 20  20 21  21 22  22 23  23 24  24 25  25 26  26 27  27 28  28 29  29 30  30 31  31 32  32 33  33 34  34 35  35 36  36 37  37 38  38 39  39 40  40 41  41 42  42 43  43 44  44 45  45 46  46 47  47 48  48 49  49 50  50 51  51 52  52 53  53 54  54 55  55 56  56 57  57 58  58 59  59 60  60 61  61 62  62 63  63 64  64 65  65 66  66 67  67 68  68 69  69 70  70 71  71 72  72 73  73 74  74 75  75 76  76 77  77 78  78 79  79 80  80 81  81 82  82 83  83 84  84 85  85 86  86 87  87 88  88 89  89 90  90 91  91 92  92 93  93 94  94 95  95 96  96 97  97 98  98 99  99 100  </DataArray>
<DataArray  type="UInt32"  Name="offsets"  format="ascii">2 4 6 8 10 12 14 16 18 20 22 24 26 28 30 32 34 36 38 40 42 44 46 48 50 52 54 56 58 60 62 64 66 68 70 72 74 76 78 80 82 84 86 88 90 92 94 96 98 100 102 104 106 108 110 112 114 116 118 120 122 124 126 128 130 132 134 136 138 140 142 144 146 148 150 152 154 156 158 160 162 164 166 168 170 172 174 176 178 180 182 184 186 188 190 192 194 196 198 200 </DataArray>
<DataArray  type="UInt8"  Name="types"  format="ascii">3 3 3 3 3 3 3 3 3 3 3 3 3 3 3 3 3 3 3 3 3 3 3 3 3 3 3 3 3 3 3 3 3 3 3 3 3 3 3 3 3 3 3 3 3 3 3 3 3 3 3 3 3 3 3 3 3 3 3 3 3 3 3 3 3 3 3 3 3 3 3 3 3 3 3 3 3 3 3 3 3 3 3 3 3 3 3 3 3 3 3 3 3 3 3 3 3 3 3 3 </DataArray>
</Cells>
<PointData  Scalars="displacement"> 
<DataArray  type="Float64"  Name="displacement"  format="ascii">0.0000000000000000e+00  1.3074972685390221e-05  2.6149945370780444e-05  3.9224918056170658e-05  5.2299890741560875e-05  6.5374863426951086e-05  7.8449836112341276e-05  9.1524808797731493e-05  1.0459978148312172e-04  1.1767475416851195e-04  1.3074972685390220e-04  1.4382469953929243e-04  1.5689967222468266e-04  1.6997464491007292e-04  1.8304961759546318e-04  1.9612459028085343e-04  2.0919956296624372e-04  2.2227453565163398e-04  2.3534950833702421e-04  2.4842448102241457e-04  2.6149945370780489e-04  2.7457442639319520e-04  2.8764939907858556e-04  3.0072437176397588e-04  3.1379934444936613e-04  3.2687431713475645e-04  3.3994928982014676e-04  3.5302426250553702e-04  3.6609923519092733e-04  3.7917420787631742e-04  3.9226898540174006e-04  4.0546953540210009e-04  4.1891235712836862e-04  4.3274530412295550e-04  4.4713531191367954e-04  4.6227828341701354e-04  4.7841252423680956e-04  4.9583792938727748e-04  5.1494459882693339e-04  5.3625733294895644e-04  5.6050790739219992e-04  5.8875833836896706e-04  6.2262347954683214e-04  6.6470194076378314e-04  7.1948664648228933e-04  7.9552273871202688e-04  9.1139665347357405e-04  1.1167435196509587e-03  1.6013237406931791e-03  4.0040230921226088e-03  9.8553692588308872e-02  1.9310336216964410e-01  1.9550606152161243e-01  1.9599064174270420e-01  1.9619598860889462e-01  1.9631186252366142e-01  1.9638789861589376e-01  1.9644268332161371e-01  1.9648476178283161e-01  1.9651862692401006e-01  1.9654687735498722e-01  1.9657112792943077e-01  1.9659244066355297e-01  1.9661154733299274e-01  1.9662897273814328e-01  1.9664510697896317e-01  1.9666024995046660e-01  1.9667463995825746e-01  1.9668847290525215e-01  1.9670191572697848e-01  1.9671511627697888e-01  1.9672821105450430e-01  1.9674128602718977e-01  1.9675436099987523e-01  1.9676743597256066e-01  1.9678051094524612e-01  1.9679358591793156e-01  1.9680666089061705e-01  1.9681973586330256e-01  1.9683281083598803e-01  1.9684588580867354e-01  1.9685896078135900e-01  1.9687203575404458e-01  1.9688511072673018e-01  1.9689818569941581e-01  1.9691126067210143e-01  1.9692433564478709e-01  1.9693741061747275e-01  1.9695048559015840e-01  1.9696356056284409e-01  1.9697663553552969e-01  1.9698971050821532e-01  1.9700278548090097e-01  1.9701586045358660e-01  1.9702893542627231e-01  1.9704201039895811e-01  1.9705508537164387e-01  1.9706816034432967e-01  1.9708123531701544e-01  1.9709431028970123e-01  1.9710738526238702e-01  </DataArray> 
</PointData> 
</Piece>
</UnstructuredGrid>
</VTKFile>