<?xml version="1.0"?>
<VTKFile type="UnstructuredGrid"  version="0.1"  >
<UnstructuredGrid>
<Piece  NumberOfPoints="101" NumberOfCells="100">
<Points>
<DataArray  type="Float64"  NumberOfComponents="3"  format="ascii">0 0 0  0.01 0 0  0.02 0 0  0.03 0 0  0.04 0 0  0.05 0 0  0.06 0 0  0.07000000000000001 0 0  0.08 0 0  0.09 0 0  0.1 0 0  0.11 0 0  0.12 0 0  0.13 0 0  0.14 0 0  0.15 0 0  0.16 0 0  0.17 0 0  0.18 0 0  0.19 0 0  0.2 0 0  0.21 0 0  0.22 0 0  0.23 0 0  0.24 0 0  0.25 0 0  0.26 0 0  0.27 0 0  0.28 0 0  0.29 0 0  0.3 0 0  0.31 0 0  0.32 0 0  0.33 0 0  0.34 0 0  0.35 0 0  0.36 0 0  0.37 0 0  0.38 0 0  0.39 0 0  0.4 0 0  0.41 0 0  0.42 0 0  0.43 0 0  0.44 0 0  0.45 0 0  0.46 0 0  0.47 0 0  0.48 0 0  0.49 0 0  0.5 0 0  0.51 0 0  0.52 0 0  0.53 0 0  0.54 0 0  0.55 0 0  0.5600000000000001 0 0  0.57 0 0  0.58 0 0  0.59 0 0  0.6 0 0  0.61 0 0  0.62 0 0  0.63 0 0  0.64 0 0  0.65 0 0  0.66 0 0  0.67 0 0  0.68 0 0  0.6899999999999999 0 0  0.7 0 0  0.71 0 0  0.72 0 0  0.73 0 0  0.74 0 0  0.75 0 0  0.76 0 0  0.77 0 0  0.78 0 0  0.79 0 0  0.8 0 0  0.8100000000000001 0 0  0.82 0 0  0.83 0 0  0.84 0 0  0.85 0 0  0.86 0 0  0.87 0 0  0.88 0 0  0.89 0 0  0.9 0 0  0.91 0 0  0.92 0 0  0.93 0 0  0.9399999999999999 0 0  0.95 0 0  0.96 0 0  0.97 0 0  0.98 0 0  0.99 0 0  1 0 0  </DataArray>
</Points>
<Cells>
<DataArray  type="UInt32"  Name="connectivity"  format="ascii">0 1  1 2  2 3  3 4  4 5  5 6  6 7  7 8  8 9  9 10  10 11  11 12  12 13  13 14  14 15  15 16  16 17  17 18  18 19  19 20  20 21  21 22  22 23  23 24  24 25  25 26  26 27  27 28  28 29  29 30  30 31  31 32  32 33  33 34  34 35  35 36  36 37  37 38  38 39  39 40  40 41  41 42  42 43  43 44  44 45  45 46  46 47  47 48  48 49  49 50  50 51  51 52  52 53  53 54  54 55  55 56  56 57  57 58  58 59  59 60  60 61  61 62  62 63  63 64  64 65  65 66  66 67  67 68  68 69  69 70  70 71  71 72  72 73  73 74  74 75  75 76  76 77  77 78  78 79  79 80  80 81  81 82  82 83  83 84  84 85  85 86  86 87  87 88  88 89  89 90  90 91  91 92  92 93  93 94  94 95  95 96  96 97  97 98  98 99  99 100  </DataArray>
<DataArray  type="UInt32"  Name="offsets"  format="ascii">2 4 6 8 10 12 14 16 18 20 22 24 26 28 30 32 34 36 38 40 42 44 46 48 50 52 54 56 58 60 62 64 66 68 70 72 74 76 78 80 82 84 86 88 90 92 94 96 98 100 102 104 106 108 110 112 114 116 118 120 122 124 126 128 130 132 134 136 138 140 142 144 146 148 150 152 154 156 158 160 162 164 166 168 170 172 174 176 178 180 182 184 186 188 190 192 194 196 198 200 </DataArray>
<DataArray  type="UInt8"  Name="types"  format="ascii">3 3 3 3 3 3 3 3 3 3 3 3 3 3 3 3 3 3 3 3 3 3 3 3 3 3 3 3 3 3 3 3 3 3 3 3 3 3 3 3 3 3 3 3 3 3 3 3 3 3 3 3 3 3 3 3 3 3 3 3 3 3 3 3 3 3 3 3 3 3 3 3 3 3 3 3 3 3 3 3 3 3 3 3 3 3 3 3 3 3 3 3 3 3 3 3 3 3 3 3 </DataArray>
</Cells>
<PointData  Scalars="displacement"> 
<DataArray  type="Float64"  Name="displacement"  format="ascii">0.0000000000000000e+00  1.1569183444370631e-05  2.3138366888741262e-05  3.4707550333111884e-05  4.6276733777482510e-05  5.7845917221853143e-05  6.9415100666223755e-05  8.0984284110594394e-05  9.2553467554965034e-05  1.0412265099933569e-04  1.1569183444370635e-04  1.2726101788807702e-04  1.3883020133244765e-04  1.5039938477681833e-04  1.6196856822118901e-04  1.7353775166555966e-04  1.8510693510993037e-04  1.9667611855430113e-04  2.0824530199867178e-04  2.1981448544304251e-04  2.3138366888741322e-04  2.4295285233178390e-04  2.5452203577615464e-04  2.6609121922052540e-04  2.7766040266489616e-04  2.8922958610926692e-04  3.0079876955363763e-04  3.1236795299800839e-04  3.2393713644237910e-04  3.3550631988674959e-04  3.4709398369710471e-04  3.5877718682869012e-04  3.7067683249465461e-04  3.8292397363267765e-04  3.9566667521205204e-04  4.0907880246777463e-04  4.2337197580515925e-04  4.3881265641523945e-04  4.5574764606912138e-04  4.7464376592370018e-04  4.9615235719384062e-04  5.2121938503678551e-04  5.5128447873042550e-04  5.8866675360208249e-04  6.3738145211203099e-04  7.0507965419814168e-04  8.0844912790723541e-04  9.9225379016892011e-04  1.4291090432011632e-03  3.6463049584963951e-03  1.0374072438944812e-01  2.0383515315806419e-01  2.0605234912128378e-01  2.0648920437858448e-01  2.0667300904195846e-01  2.0677637851611111e-01  2.0684407671841834e-01  2.0689279141705461e-01  2.0693017369200536e-01  2.0696023878575176e-01  2.0698530581363161e-01  2.0700681440492852e-01  2.0702571052480301e-01  2.0704264551447202e-01  2.0705808619509372e-01  2.0707237936844003e-01  2.0708579149570272e-01  2.0709853419728735e-01  2.0711078133842925e-01  2.0712268098409786e-01  2.0713436418723100e-01  2.0714595185104184e-01  2.0715752103448626e-01  2.0716909021793062e-01  2.0718065940137498e-01  2.0719222858481934e-01  2.0720379776826370e-01  2.0721536695170811e-01  2.0722693613515256e-01  2.0723850531859697e-01  2.0725007450204141e-01  2.0726164368548583e-01  2.0727321286893033e-01  2.0728478205237486e-01  2.0729635123581944e-01  2.0730792041926405e-01  2.0731948960270863e-01  2.0733105878615321e-01  2.0734262796959779e-01  2.0735419715304240e-01  2.0736576633648693e-01  2.0737733551993151e-01  2.0738890470337612e-01  2.0740047388682070e-01  2.0741204307026534e-01  2.0742361225371006e-01  2.0743518143715478e-01  2.0744675062059950e-01  2.0745831980404422e-01  2.0746988898748897e-01  2.0748145817093375e-01  </DataArray> 
</PointData> 
</Piece>
</UnstructuredGrid>
</VTKFile>