<?xml version="1.0"?>
<VTKFile type="UnstructuredGrid"  version="0.1"  >
<UnstructuredGrid>
<Piece  NumberOfPoints="101" NumberOfCells="100">
<Points>
<DataArray  type="Float64"  NumberOfComponents="3"  format="ascii">0 0 0  0.01 0 0  0.02 0 0  0.03 0 0  0.04 0 0  0.05 0 0  0.06 0 0  0.07000000000000001 0 0  0.08 0 0  0.09 0 0  0.1 0 0  0.11 0 0  0.12 0 0  0.13 0 0  0.14 0 0  0.15 0 0  0.16 0 0  0.17 0 0  0.18 0 0  0.19 0 0  0.2 0 0  0.21 0 0  0.22 0 0  0.23 0 0  0.24 0 0  0.25 0 0  0.26 0 0  0.27 0 0  0.28 0 0  0.29 0 0  0.3 0 0  0.31 0 0  0.32 0 0  0.33 0 0  0.34 0 0  0.35 0 0  0.36 0 0  0.37 0 0  0.38 0 0  0.39 0 0  0.4 0 0  0.41 0 0  0.42 0 0  0.43 0 0  0.44 0 0  0.45 0 0  0.46 0 0  0.47 0 0  0.48 0 0  0.49 0 0  0.5 0 0  0.51 0 0  0.52 0 0  0.53 0 0  0.54 0 0  0.55 0 0  0.5600000000000001 0 0  0.57 0 0  0.58 0 0  0.59 0 0  0.6 0 0  0.61 0 0  0.62 0 0  0.63 0 0  0.64 0 0  0.65 0 0  0.66 0 0  0.67 0 0  0.68 0 0  0.6899999999999999 0 0  0.7 0 0  0.71 0 0  0.72 0 0  0.73 0 0  0.74 0 0  0.75 0 0  0.76 0 0  0.77 0 0  0.78 0 0  0.79 0 0  0.8 0 0  0.8100000000000001 0 0  0.82 0 0  0.83 0 0  0.84 0 0  0.85 0 0  0.86 0 0  0.87 0 0  0.88 0 0  0.89 0 0  0.9 0 0  0.91 0 0  0.92 0 0  0.93 0 0  0.9399999999999999 0 0  0.95 0 0  0.96 0 0  0.97 0 0  0.98 0 0  0.99 0 0  1 0 0  </DataArray>
</Points>
<Cells>
<DataArray  type="UInt32"  Name="connectivity"  format="ascii">0 1  1 2  2 3  3 4  4 5  5 6  6 7  7 8  8 9  9 10  10 11  11 12  12 13  13 14  14 15  15 16  16 17  17 18  18 19  19 20  20 21  21 22  22 23  23 24  24 25  25 26  26 27  27 28  28 29  29 30  30 31  31 32  32 33  33 34  34 35  35 36  36 37  37 38  38 39  39 40  40 41  41 42  42 43  43 44  44 45  45 46  46 47  47 48  48 49  49 50  50 51  51 52  52 53  53 54  54 55  55 56  56 57  57 58  58 59  59 60  60 61  61 62  62 63  63 64  64 65  65 66  66 67  67 68  68 69  69 70  70 71  71 72  72 73  73 74  74 75  75 76  76 77  77 78  78 79  79 80  80 81  81 82  82 83  83 84  84 85  85 86  86 87  87 88  88 89  89 90  90 91  91 92  92 93  93 94  94 95  95 96  96 97  97 98  98 99  99 100  </DataArray>
<DataArray  type="UInt32"  Name="offsets"  format="ascii">2 4 6 8 10 12 14 16 18 20 22 24 26 28 30 32 34 36 38 40 42 44 46 48 50 52 54 56 58 60 62 64 66 68 70 72 74 76 78 80 82 84 86 88 90 92 94 96 98 100 102 104 106 108 110 112 114 116 118 120 122 124 126 128 130 132 134 136 138 140 142 144 146 148 150 152 154 156 158 160 162 164 166 168 170 172 174 176 178 180 182 184 186 188 190 192 194 196 198 200 </DataArray>
<DataArray  type="UInt8"  Name="types"  format="ascii">3 3 3 3 3 3 3 3 3 3 3 3 3 3 3 3 3 3 3 3 3 3 3 3 3 3 3 3 3 3 3 3 3 3 3 3 3 3 3 3 3 3 3 3 3 3 3 3 3 3 3 3 3 3 3 3 3 3 3 3 3 3 3 3 3 3 3 3 3 3 3 3 3 3 3 3 3 3 3 3 3 3 3 3 3 3 3 3 3 3 3 3 3 3 3 3 3 3 3 3 </DataArray>
</Cells>
<PointData  Scalars="displacement"> 
<DataArray  type="Float64"  Name="displacement"  format="ascii">0.0000000000000000e+00  9.3366656176919929e-04  1.8673331235383984e-03  2.8009996853075965e-03  3.7346662470767946e-03  4.6683328088459927e-03  5.6019993706151903e-03  6.5356659323843897e-03  7.4693324941535865e-03  8.4029990559227833e-03  9.3366656176919836e-03  1.0270332179461180e-02  1.1203998741230379e-02  1.2137665302999579e-02  1.3071331864768781e-02  1.4004998426537976e-02  1.4938664988307173e-02  1.5872331550076373e-02  1.6805998111845567e-02  1.7739664673614767e-02  1.8673331235383960e-02  1.9606997797153157e-02  2.0540664358922357e-02  2.1474330920691558e-02  2.2407997482460758e-02  2.3341664044229955e-02  2.4275330605999151e-02  2.5208997167768345e-02  2.6142663729537545e-02  2.7076330291306728e-02  2.8009996853075921e-02  2.8943663414845104e-02  2.9877329976614291e-02  3.0810996538383470e-02  3.1744663100152656e-02  3.2678329661921829e-02  3.3611996223690994e-02  3.4545662785460160e-02  3.5479329347229333e-02  3.6412995908998498e-02  3.7346662470767664e-02  3.8280329032536822e-02  3.9213995594305974e-02  4.0147662156075126e-02  4.1081328717844284e-02  4.2014995279613436e-02  4.2948661841382595e-02  4.3882328403151739e-02  4.4815994964920884e-02  4.5749661526690022e-02  4.6683328088459174e-02  4.7616994650228318e-02  4.8550661211997470e-02  4.9484327773766629e-02  5.0417994335535780e-02  5.1351660897304932e-02  5.2285327459074084e-02  5.3218994020843242e-02  5.4152660582612415e-02  5.5086327144381587e-02  5.6019993706150760e-02  5.6953660267919939e-02  5.7887326829689112e-02  5.8820993391458291e-02  5.9754659953227457e-02  6.0688326514996616e-02  6.1621993076765781e-02  6.2555659638534961e-02  6.3489326200304119e-02  6.4422992762073278e-02  6.5356659323842492e-02  6.6290325885611692e-02  6.7223992447380893e-02  6.8157659009150093e-02  6.9091325570919279e-02  7.0024992132688479e-02  7.0958658694457680e-02  7.1892325256226866e-02  7.2825991817996094e-02  7.3759658379765308e-02  7.4693324941534522e-02  7.5626991503303723e-02  7.6560658065072951e-02  7.7494324626842220e-02  7.8427991188611476e-02  7.9361657750380746e-02  8.0295324312150015e-02  8.1228990873919271e-02  8.2162657435688555e-02  8.3096323997457824e-02  8.4029990559227080e-02  8.4963657120996336e-02  8.5897323682765606e-02  8.6830990244534875e-02  8.7764656806304173e-02  8.8698323368073484e-02  8.9631989929842837e-02  9.0565656491612162e-02  9.1499323053381487e-02  9.2432989615150826e-02  9.3366656176920165e-02  </DataArray> 
</PointData> 
</Piece>
</UnstructuredGrid>
</VTKFile>