<?xml version="1.0"?>
<VTKFile type="UnstructuredGrid"  version="0.1"  >
<UnstructuredGrid>
<Piece  NumberOfPoints="101" NumberOfCells="100">
<Points>
<DataArray  type="Float64"  NumberOfComponents="3"  format="ascii">0 0 0  0.01 0 0  0.02 0 0  0.03 0 0  0.04 0 0  0.05 0 0  0.06 0 0  0.07000000000000001 0 0  0.08 0 0  0.09 0 0  0.1 0 0  0.11 0 0  0.12 0 0  0.13 0 0  0.14 0 0  0.15 0 0  0.16 0 0  0.17 0 0  0.18 0 0  0.19 0 0  0.2 0 0  0.21 0 0  0.22 0 0  0.23 0 0  0.24 0 0  0.25 0 0  0.26 0 0  0.27 0 0  0.28 0 0  0.29 0 0  0.3 0 0  0.31 0 0  0.32 0 0  0.33 0 0  0.34 0 0  0.35 0 0  0.36 0 0  0.37 0 0  0.38 0 0  0.39 0 0  0.4 0 0  0.41 0 0  0.42 0 0  0.43 0 0  0.44 0 0  0.45 0 0  0.46 0 0  0.47 0 0  0.48 0 0  0.49 0 0  0.5 0 0  0.51 0 0  0.52 0 0  0.53 0 0  0.54 0 0  0.55 0 0  0.5600000000000001 0 0  0.57 0 0  0.58 0 0  0.59 0 0  0.6 0 0  0.61 0 0  0.62 0 0  0.63 0 0  0.64 0 0  0.65 0 0  0.66 0 0  0.67 0 0  0.68 0 0  0.6899999999999999 0 0  0.7 0 0  0.71 0 0  0.72 0 0  0.73 0 0  0.74 0 0  0.75 0 0  0.76 0 0  0.77 0 0  0.78 0 0  0.79 0 0  0.8 0 0  0.8100000000000001 0 0  0.82 0 0  0.83 0 0  0.84 0 0  0.85 0 0  0.86 0 0  0.87 0 0  0.88 0 0  0.89 0 0  0.9 0 0  0.91 0 0  0.92 0 0  0.93 0 0  0.9399999999999999 0 0  0.95 0 0  0.96 0 0  0.97 0 0  0.98 0 0  0.99 0 0  1 0 0  </DataArray>
</Points>
<Cells>
<DataArray  type="UInt32"  Name="connectivity"  format="ascii">0 1  1 2  2 3  3 4  4 5  5 6  6 7  7 8  8 9  9 10  10 11  11 12  12 13  13 14  14 15  15 16  16 17  17 18  18 19  19 20  20 21  21 22  22 23  23 24  24 25  25 26  26 27  27 28  28 29  29 30  30 31  31 32  32 33  33 34  34 35  35 36  36 37  37 38  38 39  39 40  40 41  41 42  42 43  43 44  44 45  45 46  46 47  47 48  48 49  49 50  50 51  51 52  52 53  53 54  54 55  55 56  56 57  57 58  58 59  59 60  60 61  61 62  62 63  63 64  64 65  65 66  66 67  67 68  68 69  69 70  70 71  71 72  72 73  73 74  74 75  75 76  76 77  77 78  78 79  79 80  80 81  81 82  82 83  83 84  84 85  85 86  86 87  87 88  88 89  89 90  90 91  91 92  92 93  93 94  94 95  95 96  96 97  97 98  98 99  99 100  </DataArray>
<DataArray  type="UInt32"  Name="offsets"  format="ascii">2 4 6 8 10 12 14 16 18 20 22 24 26 28 30 32 34 36 38 40 42 44 46 48 50 52 54 56 58 60 62 64 66 68 70 72 74 76 78 80 82 84 86 88 90 92 94 96 98 100 102 104 106 108 110 112 114 116 118 120 122 124 126 128 130 132 134 136 138 140 142 144 146 148 150 152 154 156 158 160 162 164 166 168 170 172 174 176 178 180 182 184 186 188 190 192 194 196 198 200 </DataArray>
<DataArray  type="UInt8"  Name="types"  format="ascii">3 3 3 3 3 3 3 3 3 3 3 3 3 3 3 3 3 3 3 3 3 3 3 3 3 3 3 3 3 3 3 3 3 3 3 3 3 3 3 3 3 3 3 3 3 3 3 3 3 3 3 3 3 3 3 3 3 3 3 3 3 3 3 3 3 3 3 3 3 3 3 3 3 3 3 3 3 3 3 3 3 3 3 3 3 3 3 3 3 3 3 3 3 3 3 3 3 3 3 3 </DataArray>
</Cells>
<PointData  Scalars="displacement"> 
<DataArray  type="Float64"  Name="displacement"  format="ascii">0.0000000000000000e+00  1.4523702071965331e-03  2.9047404143930661e-03  4.3571106215895975e-03  5.8094808287861288e-03  7.2618510359826602e-03  8.7142212431791898e-03  1.0166591450375724e-02  1.1618961657572254e-02  1.3071331864768783e-02  1.4523702071965315e-02  1.5976072279161847e-02  1.7428442486358380e-02  1.8880812693554912e-02  2.0333182900751447e-02  2.1785553107947976e-02  2.3237923315144508e-02  2.4690293522341041e-02  2.6142663729537562e-02  2.7595033936734091e-02  2.9047404143930620e-02  3.0499774351127149e-02  3.1952144558323681e-02  3.3404514765520220e-02  3.4856884972716752e-02  3.6309255179913277e-02  3.7761625387109810e-02  3.9213995594306335e-02  4.0666365801502860e-02  4.2118736008699371e-02  4.3571106215895890e-02  4.5023476423092394e-02  4.6475846630288906e-02  4.7928216837485417e-02  4.9380587044681915e-02  5.0832957251878405e-02  5.2285327459074889e-02  5.3737697666271372e-02  5.5190067873467856e-02  5.6642438080664340e-02  5.8094808287860823e-02  5.9547178495057293e-02  6.0999548702253763e-02  6.2451918909450226e-02  6.3904289116646681e-02  6.5356659323843144e-02  6.6809029531039621e-02  6.8261399738236056e-02  6.9713769945432505e-02  7.1166140152628940e-02  7.2618510359825389e-02  7.4070880567021838e-02  7.5523250774218301e-02  7.6975620981414763e-02  7.8427991188611212e-02  7.9880361395807661e-02  8.1332731603004110e-02  8.2785101810200573e-02  8.4237472017397064e-02  8.5689842224593554e-02  8.7142212431790073e-02  8.8594582638986577e-02  9.0046952846183068e-02  9.1499323053379558e-02  9.2951693260576049e-02  9.4404063467772512e-02  9.5856433674969002e-02  9.7308803882165479e-02  9.8761174089361956e-02  1.0021354429655846e-01  1.0166591450375501e-01  1.0311828471095155e-01  1.0457065491814807e-01  1.0602302512534460e-01  1.0747539533254111e-01  1.0892776553973764e-01  1.1038013574693417e-01  1.1183250595413069e-01  1.1328487616132725e-01  1.1473724636852382e-01  1.1618961657572040e-01  1.1764198678291696e-01  1.1909435699011352e-01  1.2054672719731016e-01  1.2199909740450680e-01  1.2345146761170345e-01  1.2490383781890009e-01  1.2635620802609673e-01  1.2780857823329336e-01  1.2926094844049002e-01  1.3071331864768662e-01  1.3216568885488328e-01  1.3361805906207991e-01  1.3507042926927654e-01  1.3652279947647319e-01  1.3797516968366993e-01  1.3942753989086668e-01  1.4087991009806339e-01  1.4233228030526016e-01  1.4378465051245690e-01  1.4523702071965361e-01  </DataArray> 
</PointData> 
</Piece>
</UnstructuredGrid>
</VTKFile>