<?xml version="1.0"?>
<VTKFile type="UnstructuredGrid"  version="0.1"  >
<UnstructuredGrid>
<Piece  NumberOfPoints="101" NumberOfCells="100">
<Points>
<DataArray  type="Float64"  NumberOfComponents="3"  format="ascii">0 0 0  0.01 0 0  0.02 0 0  0.03 0 0  0.04 0 0  0.05 0 0  0.06 0 0  0.07000000000000001 0 0  0.08 0 0  0.09 0 0  0.1 0 0  0.11 0 0  0.12 0 0  0.13 0 0  0.14 0 0  0.15 0 0  0.16 0 0  0.17 0 0  0.18 0 0  0.19 0 0  0.2 0 0  0.21 0 0  0.22 0 0  0.23 0 0  0.24 0 0  0.25 0 0  0.26 0 0  0.27 0 0  0.28 0 0  0.29 0 0  0.3 0 0  0.31 0 0  0.32 0 0  0.33 0 0  0.34 0 0  0.35 0 0  0.36 0 0  0.37 0 0  0.38 0 0  0.39 0 0  0.4 0 0  0.41 0 0  0.42 0 0  0.43 0 0  0.44 0 0  0.45 0 0  0.46 0 0  0.47 0 0  0.48 0 0  0.49 0 0  0.5 0 0  0.51 0 0  0.52 0 0  0.53 0 0  0.54 0 0  0.55 0 0  0.5600000000000001 0 0  0.57 0 0  0.58 0 0  0.59 0 0  0.6 0 0  0.61 0 0  0.62 0 0  0.63 0 0  0.64 0 0  0.65 0 0  0.66 0 0  0.67 0 0  0.68 0 0  0.6899999999999999 0 0  0.7 0 0  0.71 0 0  0.72 0 0  0.73 0 0  0.74 0 0  0.75 0 0  0.76 0 0  0.77 0 0  0.78 0 0  0.79 0 0  0.8 0 0  0.8100000000000001 0 0  0.82 0 0  0.83 0 0  0.84 0 0  0.85 0 0  0.86 0 0  0.87 0 0  0.88 0 0  0.89 0 0  0.9 0 0  0.91 0 0  0.92 0 0  0.93 0 0  0.9399999999999999 0 0  0.95 0 0  0.96 0 0  0.97 0 0  0.98 0 0  0.99 0 0  1 0 0  </DataArray>
</Points>
<Cells>
<DataArray  type="UInt32"  Name="connectivity"  format="ascii">0 1  1 2  2 3  3 4  4 5  5 6  6 7  7 8  8 9  9 10  10 11  11 12  12 13  13 14  14 15  15 16  16 17  17 18  18 19  19 20  20 21  21 22  22 23  23 24  24 25  25 26  26 27  27 28  28 29  29 30  30 31  31 32  32 33  33 34  34 35  35 36  36 37  37 38  38 39  39 40  40 41  41 42  42 43  43 44  44 45  45 46  46 47  47 48  48 49  49 50  50 51  51 52  52 53  53 54  54 55  55 56  56 57  57 58  58 59  59 60  60 61  61 62  62 63  63 64  64 65  65 66  66 67  67 68  68 69  69 70  70 71  71 72  72 73  73 74  74 75  75 76  76 77  77 78  78 79  79 80  80 81  81 82  82 83  83 84  84 85  85 86  86 87  87 88  88 89  89 90  90 91  91 92  92 93  93 94  94 95  95 96  96 97  97 98  98 99  99 100  </DataArray>
<DataArray  type="UInt32"  Name="offsets"  format="ascii">2 4 6 8 10 12 14 16 18 20 22 24 26 28 30 32 34 36 38 40 42 44 46 48 50 52 54 56 58 60 62 64 66 68 70 72 74 76 78 80 82 84 86 88 90 92 94 96 98 100 102 104 106 108 110 112 114 116 118 120 122 124 126 128 130 132 134 136 138 140 142 144 146 148 150 152 154 156 158 160 162 164 166 168 170 172 174 176 178 180 182 184 186 188 190 192 194 196 198 200 </DataArray>
<DataArray  type="UInt8"  Name="types"  format="ascii">3 3 3 3 3 3 3 3 3 3 3 3 3 3 3 3 3 3 3 3 3 3 3 3 3 3 3 3 3 3 3 3 3 3 3 3 3 3 3 3 3 3 3 3 3 3 3 3 3 3 3 3 3 3 3 3 3 3 3 3 3 3 3 3 3 3 3 3 3 3 3 3 3 3 3 3 3 3 3 3 3 3 3 3 3 3 3 3 3 3 3 3 3 3 3 3 3 3 3 3 </DataArray>
</Cells>
<PointData  Scalars="displacement"> 
<DataArray  type="Float64"  Name="displacement"  format="ascii">0.0000000000000000e+00  8.2992583268373156e-04  1.6598516653674629e-03  2.4897774980511935e-03  3.3197033307349236e-03  4.1496291634186546e-03  4.9795549961023844e-03  5.8094808287861149e-03  6.6394066614698455e-03  7.4693324941535761e-03  8.2992583268373075e-03  9.1291841595210390e-03  9.9591099922047704e-03  1.0789035824888504e-02  1.1618961657572239e-02  1.2448887490255968e-02  1.3278813322939701e-02  1.4108739155623435e-02  1.4938664988307164e-02  1.5768590820990892e-02  1.6598516653674622e-02  1.7428442486358352e-02  1.8258368319042088e-02  1.9088294151725822e-02  1.9918219984409551e-02  2.0748145817093284e-02  2.1578071649777014e-02  2.2407997482460744e-02  2.3237923315144477e-02  2.4067849147828196e-02  2.4897774980511919e-02  2.5727700813195638e-02  2.6557626645879358e-02  2.7387552478563074e-02  2.8217478311246789e-02  2.9047404143930498e-02  2.9877329976614204e-02  3.0707255809297906e-02  3.1537181641981618e-02  3.2367107474665320e-02  3.3197033307349022e-02  3.4026959140032710e-02  3.4856884972716405e-02  3.5686810805400093e-02  3.6516736638083788e-02  3.7346662470767483e-02  3.8176588303451185e-02  3.9006514136134866e-02  3.9836439968818554e-02  4.0666365801502229e-02  4.1496291634185910e-02  4.2326217466869598e-02  4.3156143299553293e-02  4.3986069132236981e-02  4.4815994964920669e-02  4.5645920797604357e-02  4.6475846630288038e-02  4.7305772462971733e-02  4.8135698295655442e-02  4.8965624128339144e-02  4.9795549961022860e-02  5.0625475793706576e-02  5.1455401626390292e-02  5.2285327459073994e-02  5.3115253291757696e-02  5.3945179124441398e-02  5.4775104957125093e-02  5.5605030789808794e-02  5.6434956622492490e-02  5.7264882455176198e-02  5.8094808287859949e-02  5.8924734120543686e-02  5.9754659953227422e-02  6.0584585785911159e-02  6.1414511618594868e-02  6.2244437451278604e-02  6.3074363283962334e-02  6.3904289116646071e-02  6.4734214949329821e-02  6.5564140782013572e-02  6.6394066614697309e-02  6.7223992447381059e-02  6.8053918280064823e-02  6.8883844112748616e-02  6.9713769945432394e-02  7.0543695778116186e-02  7.1373621610799992e-02  7.2203547443483784e-02  7.3033473276167590e-02  7.3863399108851382e-02  7.4693324941535161e-02  7.5523250774218953e-02  7.6353176606902745e-02  7.7183102439586551e-02  7.8013028272270357e-02  7.8842954104954205e-02  7.9672879937638066e-02  8.0502805770321900e-02  8.1332731603005762e-02  8.2162657435689623e-02  8.2992583268373485e-02  </DataArray> 
</PointData> 
</Piece>
</UnstructuredGrid>
</VTKFile>