<?xml version="1.0"?>
<VTKFile type="UnstructuredGrid"  version="0.1"  >
<UnstructuredGrid>
<Piece  NumberOfPoints="101" NumberOfCells="100">
<Points>
<DataArray  type="Float64"  NumberOfComponents="3"  format="ascii">0 0 0  0.01 0 0  0.02 0 0  0.03 0 0  0.04 0 0  0.05 0 0  0.06 0 0  0.07000000000000001 0 0  0.08 0 0  0.09 0 0  0.1 0 0  0.11 0 0  0.12 0 0  0.13 0 0  0.14 0 0  0.15 0 0  0.16 0 0  0.17 0 0  0.18 0 0  0.19 0 0  0.2 0 0  0.21 0 0  0.22 0 0  0.23 0 0  0.24 0 0  0.25 0 0  0.26 0 0  0.27 0 0  0.28 0 0  0.29 0 0  0.3 0 0  0.31 0 0  0.32 0 0  0.33 0 0  0.34 0 0  0.35 0 0  0.36 0 0  0.37 0 0  0.38 0 0  0.39 0 0  0.4 0 0  0.41 0 0  0.42 0 0  0.43 0 0  0.44 0 0  0.45 0 0  0.46 0 0  0.47 0 0  0.48 0 0  0.49 0 0  0.5 0 0  0.51 0 0  0.52 0 0  0.53 0 0  0.54 0 0  0.55 0 0  0.5600000000000001 0 0  0.57 0 0  0.58 0 0  0.59 0 0  0.6 0 0  0.61 0 0  0.62 0 0  0.63 0 0  0.64 0 0  0.65 0 0  0.66 0 0  0.67 0 0  0.68 0 0  0.6899999999999999 0 0  0.7 0 0  0.71 0 0  0.72 0 0  0.73 0 0  0.74 0 0  0.75 0 0  0.76 0 0  0.77 0 0  0.78 0 0  0.79 0 0  0.8 0 0  0.8100000000000001 0 0  0.82 0 0  0.83 0 0  0.84 0 0  0.85 0 0  0.86 0 0  0.87 0 0  0.88 0 0  0.89 0 0  0.9 0 0  0.91 0 0  0.92 0 0  0.93 0 0  0.9399999999999999 0 0  0.95 0 0  0.96 0 0  0.97 0 0  0.98 0 0  0.99 0 0  1 0 0  </DataArray>
</Points>
<Cells>
<DataArray  type="UInt32"  Name="connectivity"  format="ascii">0 1  1 2  2 3  3 4  4 5  5 6  6 7  7 8  8 9  9 10  10 11  11 12  12 13  13 14  14 15  15 16  16 17  17 18  18 19  19 20  20 21  21 22  22 23  23 24  24 25  25 26  26 27  27 28  28 29  29 30  30 31  31 32  32 33  33 34  34 35  35 36  36 37  37 38  38 39  39 40  40 41  41 42  42 43  43 44  44 45  45 46  46 47  47 48  48 49  49 50  50 51  51 52  52 53  53 54  54 55  55 56  56 57  57 58  58 59  59 60  60 61  61 62  62 63  63 64  64 65  65 66  66 67  67 68  68 69  69 70  70 71  71 72  72 73  73 74  74 75  75 76  76 77  77 78  78 79  79 80  80 81  81 82  82 83  83 84  84 85  85 86  86 87  87 88  88 89  89 90  90 91  91 92  92 93  93 94  94 95  95 96  96 97  97 98  98 99  99 100  </DataArray>
<DataArray  type="UInt32"  Name="offsets"  format="ascii">2 4 6 8 10 12 14 16 18 20 22 24 26 28 30 32 34 36 38 40 42 44 46 48 50 52 54 56 58 60 62 64 66 68 70 72 74 76 78 80 82 84 86 88 90 92 94 96 98 100 102 104 106 108 110 112 114 116 118 120 122 124 126 128 130 132 134 136 138 140 142 144 146 148 150 152 154 156 158 160 162 164 166 168 170 172 174 176 178 180 182 184 186 188 190 192 194 196 198 200 </DataArray>
<DataArray  type="UInt8"  Name="types"  format="ascii">3 3 3 3 3 3 3 3 3 3 3 3 3 3 3 3 3 3 3 3 3 3 3 3 3 3 3 3 3 3 3 3 3 3 3 3 3 3 3 3 3 3 3 3 3 3 3 3 3 3 3 3 3 3 3 3 3 3 3 3 3 3 3 3 3 3 3 3 3 3 3 3 3 3 3 3 3 3 3 3 3 3 3 3 3 3 3 3 3 3 3 3 3 3 3 3 3 3 3 3 </DataArray>
</Cells>
<PointData  Scalars="displacement"> 
<DataArray  type="Float64"  Name="displacement"  format="ascii">0.0000000000000000e+00  5.1870364542733259e-04  1.0374072908546652e-03  1.5561109362819973e-03  2.0748145817093295e-03  2.5935182271366614e-03  3.1122218725639929e-03  3.6309255179913262e-03  4.1496291634186581e-03  4.6683328088459892e-03  5.1870364542733220e-03  5.7057400997006539e-03  6.2244437451279867e-03  6.7431473905553213e-03  7.2618510359826541e-03  7.7805546814099843e-03  8.2992583268373180e-03  8.8179619722646499e-03  9.3366656176919801e-03  9.8553692631193138e-03  1.0374072908546644e-02  1.0892776553973976e-02  1.1411480199401310e-02  1.1930183844828643e-02  1.2448887490255977e-02  1.2967591135683309e-02  1.3486294781110643e-02  1.4004998426537973e-02  1.4523702071965305e-02  1.5042405717392631e-02  1.5561109362819958e-02  1.6079813008247283e-02  1.6598516653674608e-02  1.7117220299101933e-02  1.7635923944529255e-02  1.8154627589956569e-02  1.8673331235383887e-02  1.9192034880811202e-02  1.9710738526238520e-02  2.0229442171665835e-02  2.0748145817093146e-02  2.1266849462520457e-02  2.1785553107947768e-02  2.2304256753375072e-02  2.2822960398802380e-02  2.3341664044229684e-02  2.3860367689656999e-02  2.4379071335084303e-02  2.4897774980511603e-02  2.5416478625938904e-02  2.5935182271366205e-02  2.6453885916793513e-02  2.6972589562220817e-02  2.7491293207648124e-02  2.8009996853075432e-02  2.8528700498502740e-02  2.9047404143930047e-02  2.9566107789357355e-02  3.0084811434784677e-02  3.0603515080211998e-02  3.1122218725639320e-02  3.1640922371066638e-02  3.2159626016493956e-02  3.2678329661921274e-02  3.3197033307348592e-02  3.3715736952775903e-02  3.4234440598203214e-02  3.4753144243630525e-02  3.5271847889057836e-02  3.5790551534485161e-02  3.6309255179912500e-02  3.6827958825339839e-02  3.7346662470767164e-02  3.7865366116194503e-02  3.8384069761621828e-02  3.8902773407049153e-02  3.9421477052476485e-02  3.9940180697903824e-02  4.0458884343331163e-02  4.0977587988758502e-02  4.1496291634185847e-02  4.2014995279613186e-02  4.2533698925040532e-02  4.3052402570467906e-02  4.3571106215895265e-02  4.4089809861322639e-02  4.4608513506750005e-02  4.5127217152177379e-02  4.5645920797604760e-02  4.6164624443032133e-02  4.6683328088459493e-02  4.7202031733886866e-02  4.7720735379314240e-02  4.8239439024741614e-02  4.8758142670168994e-02  4.9276846315596402e-02  4.9795549961023804e-02  5.0314253606451205e-02  5.0832957251878613e-02  5.1351660897306022e-02  5.1870364542733437e-02  </DataArray> 
</PointData> 
</Piece>
</UnstructuredGrid>
</VTKFile>