<?xml version="1.0"?>
<VTKFile type="UnstructuredGrid"  version="0.1"  >
<UnstructuredGrid>
<Piece  NumberOfPoints="101" NumberOfCells="100">
<Points>
<DataArray  type="Float64"  NumberOfComponents="3"  format="ascii">0 0 0  0.01 0 0  0.02 0 0  0.03 0 0  0.04 0 0  0.05 0 0  0.06 0 0  0.07000000000000001 0 0  0.08 0 0  0.09 0 0  0.1 0 0  0.11 0 0  0.12 0 0  0.13 0 0  0.14 0 0  0.15 0 0  0.16 0 0  0.17 0 0  0.18 0 0  0.19 0 0  0.2 0 0  0.21 0 0  0.22 0 0  0.23 0 0  0.24 0 0  0.25 0 0  0.26 0 0  0.27 0 0  0.28 0 0  0.29 0 0  0.3 0 0  0.31 0 0  0.32 0 0  0.33 0 0  0.34 0 0  0.35 0 0  0.36 0 0  0.37 0 0  0.38 0 0  0.39 0 0  0.4 0 0  0.41 0 0  0.42 0 0  0.43 0 0  0.44 0 0  0.45 0 0  0.46 0 0  0.47 0 0  0.48 0 0  0.49 0 0  0.5 0 0  0.51 0 0  0.52 0 0  0.53 0 0  0.54 0 0  0.55 0 0  0.5600000000000001 0 0  0.57 0 0  0.58 0 0  0.59 0 0  0.6 0 0  0.61 0 0  0.62 0 0  0.63 0 0  0.64 0 0  0.65 0 0  0.66 0 0  0.67 0 0  0.68 0 0  0.6899999999999999 0 0  0.7 0 0  0.71 0 0  0.72 0 0  0.73 0 0  0.74 0 0  0.75 0 0  0.76 0 0  0.77 0 0  0.78 0 0  0.79 0 0  0.8 0 0  0.8100000000000001 0 0  0.82 0 0  0.83 0 0  0.84 0 0  0.85 0 0  0.86 0 0  0.87 0 0  0.88 0 0  0.89 0 0  0.9 0 0  0.91 0 0  0.92 0 0  0.93 0 0  0.9399999999999999 0 0  0.95 0 0  0.96 0 0  0.97 0 0  0.98 0 0  0.99 0 0  1 0 0  </DataArray>
</Points>
<Cells>
<DataArray  type="UInt32"  Name="connectivity"  format="ascii">0 1  1 2  2 3  3 4  4 5  5 6  6 7  7 8  8 9  9 10  10 11  11 12  12 13  13 14  14 15  15 16  16 17  17 18  18 19  19 20  20 21  21 22  22 23  23 24  24 25  25 26  26 27  27 28  28 29  29 30  30 31  31 32  32 33  33 34  34 35  35 36  36 37  37 38  38 39  39 40  40 41  41 42  42 43  43 44  44 45  45 46  46 47  47 48  48 49  49 50  50 51  51 52  52 53  53 54  54 55  55 56  56 57  57 58  58 59  59 60  60 61  61 62  62 63  63 64  64 65  65 66  66 67  67 68  68 69  69 70  70 71  71 72  72 73  73 74  74 75  75 76  76 77  77 78  78 79  79 80  80 81  81 82  82 83  83 84  84 85  85 86  86 87  87 88  88 89  89 90  90 91  91 92  92 93  93 94  94 95  95 96  96 97  97 98  98 99  99 100  </DataArray>
<DataArray  type="UInt32"  Name="offsets"  format="ascii">2 4 6 8 10 12 14 16 18 20 22 24 26 28 30 32 34 36 38 40 42 44 46 48 50 52 54 56 58 60 62 64 66 68 70 72 74 76 78 80 82 84 86 88 90 92 94 96 98 100 102 104 106 108 110 112 114 116 118 120 122 124 126 128 130 132 134 136 138 140 142 144 146 148 150 152 154 156 158 160 162 164 166 168 170 172 174 176 178 180 182 184 186 188 190 192 194 196 198 200 </DataArray>
<DataArray  type="UInt8"  Name="types"  format="ascii">3 3 3 3 3 3 3 3 3 3 3 3 3 3 3 3 3 3 3 3 3 3 3 3 3 3 3 3 3 3 3 3 3 3 3 3 3 3 3 3 3 3 3 3 3 3 3 3 3 3 3 3 3 3 3 3 3 3 3 3 3 3 3 3 3 3 3 3 3 3 3 3 3 3 3 3 3 3 3 3 3 3 3 3 3 3 3 3 3 3 3 3 3 3 3 3 3 3 3 3 </DataArray>
</Cells>
<PointData  Scalars="displacement"> 
<DataArray  type="Float64"  Name="displacement"  format="ascii">0.0000000000000000e+00  1.2448887490255989e-03  2.4897774980511978e-03  3.7346662470767954e-03  4.9795549961023922e-03  6.2244437451279902e-03  7.4693324941535865e-03  8.7142212431791845e-03  9.9591099922047809e-03  1.1203998741230377e-02  1.2448887490255975e-02  1.3693776239281570e-02  1.4938664988307166e-02  1.6183553737332768e-02  1.7428442486358366e-02  1.8673331235383960e-02  1.9918219984409558e-02  2.1163108733435153e-02  2.2407997482460747e-02  2.3652886231486342e-02  2.4897774980511937e-02  2.6142663729537535e-02  2.7387552478563143e-02  2.8632441227588741e-02  2.9877329976614339e-02  3.1122218725639934e-02  3.2367107474665528e-02  3.3611996223691119e-02  3.4856884972716717e-02  3.6101773721742302e-02  3.7346662470767886e-02  3.8591551219793463e-02  3.9836439968819047e-02  4.1081328717844624e-02  4.2326217466870202e-02  4.3571106215895765e-02  4.4815994964921321e-02  4.6060883713946878e-02  4.7305772462972441e-02  4.8550661211997997e-02  4.9795549961023554e-02  5.1040438710049096e-02  5.2285327459074639e-02  5.3530216208100168e-02  5.4775104957125717e-02  5.6019993706151253e-02  5.7264882455176802e-02  5.8509771204202324e-02  5.9754659953227839e-02  6.0999548702253353e-02  6.2244437451278882e-02  6.3489326200304411e-02  6.4734214949329960e-02  6.5979103698355496e-02  6.7223992447381031e-02  6.8468881196406567e-02  6.9713769945432089e-02  7.0958658694457638e-02  7.2203547443483215e-02  7.3448436192508765e-02  7.4693324941534342e-02  7.5938213690559919e-02  7.7183102439585483e-02  7.8427991188611046e-02  7.9672879937636595e-02  8.0917768686662145e-02  8.2162657435687694e-02  8.3407546184713244e-02  8.4652434933738807e-02  8.5897323682764370e-02  8.7142212431789975e-02  8.8387101180815580e-02  8.9631989929841172e-02  9.0876878678866763e-02  9.2121767427892354e-02  9.3366656176917945e-02  9.4611544925943536e-02  9.5856433674969141e-02  9.7101322423994760e-02  9.8346211173020379e-02  9.9591099922046011e-02  1.0083598867107162e-01  1.0208087742009726e-01  1.0332576616912295e-01  1.0457065491814864e-01  1.0581554366717434e-01  1.0706043241620002e-01  1.0830532116522570e-01  1.0955020991425141e-01  1.1079509866327711e-01  1.1203998741230278e-01  1.1328487616132847e-01  1.1452976491035417e-01  1.1577465365937985e-01  1.1701954240840555e-01  1.1826443115743132e-01  1.1950931990645711e-01  1.2075420865548288e-01  1.2199909740450864e-01  1.2324398615353443e-01  1.2448887490256023e-01  </DataArray> 
</PointData> 
</Piece>
</UnstructuredGrid>
</VTKFile>