<?xml version="1.0"?>
<VTKFile type="UnstructuredGrid"  version="0.1"  >
<UnstructuredGrid>
<Piece  NumberOfPoints="101" NumberOfCells="100">
<Points>
<DataArray  type="Float64"  NumberOfComponents="3"  format="ascii">0 0 0  0.01 0 0  0.02 0 0  0.03 0 0  0.04 0 0  0.05 0 0  0.06 0 0  0.07000000000000001 0 0  0.08 0 0  0.09 0 0  0.1 0 0  0.11 0 0  0.12 0 0  0.13 0 0  0.14 0 0  0.15 0 0  0.16 0 0  0.17 0 0  0.18 0 0  0.19 0 0  0.2 0 0  0.21 0 0  0.22 0 0  0.23 0 0  0.24 0 0  0.25 0 0  0.26 0 0  0.27 0 0  0.28 0 0  0.29 0 0  0.3 0 0  0.31 0 0  0.32 0 0  0.33 0 0  0.34 0 0  0.35 0 0  0.36 0 0  0.37 0 0  0.38 0 0  0.39 0 0  0.4 0 0  0.41 0 0  0.42 0 0  0.43 0 0  0.44 0 0  0.45 0 0  0.46 0 0  0.47 0 0  0.48 0 0  0.49 0 0  0.5 0 0  0.51 0 0  0.52 0 0  0.53 0 0  0.54 0 0  0.55 0 0  0.5600000000000001 0 0  0.57 0 0  0.58 0 0  0.59 0 0  0.6 0 0  0.61 0 0  0.62 0 0  0.63 0 0  0.64 0 0  0.65 0 0  0.66 0 0  0.67 0 0  0.68 0 0  0.6899999999999999 0 0  0.7 0 0  0.71 0 0  0.72 0 0  0.73 0 0  0.74 0 0  0.75 0 0  0.76 0 0  0.77 0 0  0.78 0 0  0.79 0 0  0.8 0 0  0.8100000000000001 0 0  0.82 0 0  0.83 0 0  0.84 0 0  0.85 0 0  0.86 0 0  0.87 0 0  0.88 0 0  0.89 0 0  0.9 0 0  0.91 0 0  0.92 0 0  0.93 0 0  0.9399999999999999 0 0  0.95 0 0  0.96 0 0  0.97 0 0  0.98 0 0  0.99 0 0  1 0 0  </DataArray>
</Points>
<Cells>
<DataArray  type="UInt32"  Name="connectivity"  format="ascii">0 1  1 2  2 3  3 4  4 5  5 6  6 7  7 8  8 9  9 10  10 11  11 12  12 13  13 14  14 15  15 16  16 17  17 18  18 19  19 20  20 21  21 22  22 23  23 24  24 25  25 26  26 27  27 28  28 29  29 30  30 31  31 32  32 33  33 34  34 35  35 36  36 37  37 38  38 39  39 40  40 41  41 42  42 43  43 44  44 45  45 46  46 47  47 48  48 49  49 50  50 51  51 52  52 53  53 54  54 55  55 56  56 57  57 58  58 59  59 60  60 61  61 62  62 63  63 64  64 65  65 66  66 67  67 68  68 69  69 70  70 71  71 72  72 73  73 74  74 75  75 76  76 77  77 78  78 79  79 80  80 81  81 82  82 83  83 84  84 85  85 86  86 87  87 88  88 89  89 90  90 91  91 92  92 93  93 94  94 95  95 96  96 97  97 98  98 99  99 100  </DataArray>
<DataArray  type="UInt32"  Name="offsets"  format="ascii">2 4 6 8 10 12 14 16 18 20 22 24 26 28 30 32 34 36 38 40 42 44 46 48 50 52 54 56 58 60 62 64 66 68 70 72 74 76 78 80 82 84 86 88 90 92 94 96 98 100 102 104 106 108 110 112 114 116 118 120 122 124 126 128 130 132 134 136 138 140 142 144 146 148 150 152 154 156 158 160 162 164 166 168 170 172 174 176 178 180 182 184 186 188 190 192 194 196 198 200 </DataArray>
<DataArray  type="UInt8"  Name="types"  format="ascii">3 3 3 3 3 3 3 3 3 3 3 3 3 3 3 3 3 3 3 3 3 3 3 3 3 3 3 3 3 3 3 3 3 3 3 3 3 3 3 3 3 3 3 3 3 3 3 3 3 3 3 3 3 3 3 3 3 3 3 3 3 3 3 3 3 3 3 3 3 3 3 3 3 3 3 3 3 3 3 3 3 3 3 3 3 3 3 3 3 3 3 3 3 3 3 3 3 3 3 3 </DataArray>
</Cells>
<PointData  Scalars="displacement"> 
<DataArray  type="Float64"  Name="displacement"  format="ascii">0.0000000000000000e+00  1.0287570028141827e-05  2.0575140056283654e-05  3.0862710084425481e-05  4.1150280112567301e-05  5.1437850140709128e-05  6.1725420168850961e-05  7.2012990196992788e-05  8.2300560225134629e-05  9.2588130253276469e-05  1.0287570028141835e-04  1.1316327030956024e-04  1.2345084033770214e-04  1.3373841036584409e-04  1.4402598039398598e-04  1.5431355042212785e-04  1.6460112045026974e-04  1.7488869047841164e-04  1.8517626050655353e-04  1.9546383053469543e-04  2.0575140056283732e-04  2.1603897059097916e-04  2.2632654061912109e-04  2.3661411064726293e-04  2.4690168067540471e-04  2.5718925070354658e-04  2.6747682073168845e-04  2.7776439075983026e-04  2.8805196078797207e-04  2.9833953081611372e-04  3.0864428654226074e-04  3.1903553138672950e-04  3.2962087324256829e-04  3.4051702658775379e-04  3.5185593404230464e-04  3.6379261370582438e-04  3.7651584261124039e-04  3.9026343547671032e-04  4.0534506193597993e-04  4.2217777337255678e-04  4.4134379359468554e-04  4.6368924581764552e-04  4.9050279341542762e-04  5.2386232130635006e-04  5.6736982542876947e-04  6.2790043769680721e-04  7.2048622719303121e-04  8.8560964193664759e-04  1.2805741299271240e-03  3.3274364664830905e-03  1.0892759630915191e-01  2.1452809301835396e-01  2.1657495676584601e-01  2.1696992137603974e-01  2.1713504482233101e-01  2.1722763062435310e-01  2.1728816124284941e-01  2.1733166875052479e-01  2.1736502828063756e-01  2.1739184182971821e-01  2.1741418728297920e-01  2.1743335330395433e-01  2.1745018601595176e-01  2.1746526764283661e-01  2.1747901523602886e-01  2.1749173846518649e-01  2.1750367514504396e-01  2.1751501405264542e-01  2.1752591020609827e-01  2.1753649554802773e-01  2.1754688679291520e-01  2.1755719154865560e-01  2.1756747911868382e-01  2.1757776668871209e-01  2.1758805425874034e-01  2.1759834182876861e-01  2.1760862939879688e-01  2.1761891696882521e-01  2.1762920453885351e-01  2.1763949210888184e-01  2.1764977967891017e-01  2.1766006724893847e-01  2.1767035481896682e-01  2.1768064238899529e-01  2.1769092995902375e-01  2.1770121752905222e-01  2.1771150509908072e-01  2.1772179266910915e-01  2.1773208023913768e-01  2.1774236780916617e-01  2.1775265537919464e-01  2.1776294294922308e-01  2.1777323051925157e-01  2.1778351808928006e-01  2.1779380565930861e-01  2.1780409322933728e-01  2.1781438079936591e-01  2.1782466836939449e-01  2.1783495593942315e-01  2.1784524350945178e-01  2.1785553107948039e-01  </DataArray> 
</PointData> 
</Piece>
</UnstructuredGrid>
</VTKFile>