<?xml version="1.0"?>
<VTKFile type="UnstructuredGrid"  version="0.1"  >
<UnstructuredGrid>
<Piece  NumberOfPoints="101" NumberOfCells="100">
<Points>
<DataArray  type="Float64"  NumberOfComponents="3"  format="ascii">0 0 0  0.01 0 0  0.02 0 0  0.03 0 0  0.04 0 0  0.05 0 0  0.06 0 0  0.07000000000000001 0 0  0.08 0 0  0.09 0 0  0.1 0 0  0.11 0 0  0.12 0 0  0.13 0 0  0.14 0 0  0.15 0 0  0.16 0 0  0.17 0 0  0.18 0 0  0.19 0 0  0.2 0 0  0.21 0 0  0.22 0 0  0.23 0 0  0.24 0 0  0.25 0 0  0.26 0 0  0.27 0 0  0.28 0 0  0.29 0 0  0.3 0 0  0.31 0 0  0.32 0 0  0.33 0 0  0.34 0 0  0.35 0 0  0.36 0 0  0.37 0 0  0.38 0 0  0.39 0 0  0.4 0 0  0.41 0 0  0.42 0 0  0.43 0 0  0.44 0 0  0.45 0 0  0.46 0 0  0.47 0 0  0.48 0 0  0.49 0 0  0.5 0 0  0.51 0 0  0.52 0 0  0.53 0 0  0.54 0 0  0.55 0 0  0.5600000000000001 0 0  0.57 0 0  0.58 0 0  0.59 0 0  0.6 0 0  0.61 0 0  0.62 0 0  0.63 0 0  0.64 0 0  0.65 0 0  0.66 0 0  0.67 0 0  0.68 0 0  0.6899999999999999 0 0  0.7 0 0  0.71 0 0  0.72 0 0  0.73 0 0  0.74 0 0  0.75 0 0  0.76 0 0  0.77 0 0  0.78 0 0  0.79 0 0  0.8 0 0  0.8100000000000001 0 0  0.82 0 0  0.83 0 0  0.84 0 0  0.85 0 0  0.86 0 0  0.87 0 0  0.88 0 0  0.89 0 0  0.9 0 0  0.91 0 0  0.92 0 0  0.93 0 0  0.9399999999999999 0 0  0.95 0 0  0.96 0 0  0.97 0 0  0.98 0 0  0.99 0 0  1 0 0  </DataArray>
</Points>
<Cells>
<DataArray  type="UInt32"  Name="connectivity"  format="ascii">0 1  1 2  2 3  3 4  4 5  5 6  6 7  7 8  8 9  9 10  10 11  11 12  12 13  13 14  14 15  15 16  16 17  17 18  18 19  19 20  20 21  21 22  22 23  23 24  24 25  25 26  26 27  27 28  28 29  29 30  30 31  31 32  32 33  33 34  34 35  35 36  36 37  37 38  38 39  39 40  40 41  41 42  42 43  43 44  44 45  45 46  46 47  47 48  48 49  49 50  50 51  51 52  52 53  53 54  54 55  55 56  56 57  57 58  58 59  59 60  60 61  61 62  62 63  63 64  64 65  65 66  66 67  67 68  68 69  69 70  70 71  71 72  72 73  73 74  74 75  75 76  76 77  77 78  78 79  79 80  80 81  81 82  82 83  83 84  84 85  85 86  86 87  87 88  88 89  89 90  90 91  91 92  92 93  93 94  94 95  95 96  96 97  97 98  98 99  99 100  </DataArray>
<DataArray  type="UInt32"  Name="offsets"  format="ascii">2 4 6 8 10 12 14 16 18 20 22 24 26 28 30 32 34 36 38 40 42 44 46 48 50 52 54 56 58 60 62 64 66 68 70 72 74 76 78 80 82 84 86 88 90 92 94 96 98 100 102 104 106 108 110 112 114 116 118 120 122 124 126 128 130 132 134 136 138 140 142 144 146 148 150 152 154 156 158 160 162 164 166 168 170 172 174 176 178 180 182 184 186 188 190 192 194 196 198 200 </DataArray>
<DataArray  type="UInt8"  Name="types"  format="ascii">3 3 3 3 3 3 3 3 3 3 3 3 3 3 3 3 3 3 3 3 3 3 3 3 3 3 3 3 3 3 3 3 3 3 3 3 3 3 3 3 3 3 3 3 3 3 3 3 3 3 3 3 3 3 3 3 3 3 3 3 3 3 3 3 3 3 3 3 3 3 3 3 3 3 3 3 3 3 3 3 3 3 3 3 3 3 3 3 3 3 3 3 3 3 3 3 3 3 3 3 </DataArray>
</Cells>
<PointData  Scalars="displacement"> 
<DataArray  type="Float64"  Name="displacement"  format="ascii">0.0000000000000000e+00  1.1585495156918539e-06  2.3170990313837082e-06  3.4756485470755615e-06  4.6341980627674148e-06  5.7927475784592681e-06  6.9512970941511205e-06  8.1098466098429755e-06  9.2683961255348279e-06  1.0426945641226682e-05  1.1585495156918538e-05  1.2744044672610392e-05  1.3902594188302248e-05  1.5061143703994107e-05  1.6219693219685965e-05  1.7378242735377820e-05  1.8536792251069683e-05  1.9695341766761542e-05  2.0853891282453398e-05  2.2012440798145257e-05  2.3170990313837116e-05  2.4329539829528969e-05  2.5488089345220831e-05  2.6646638860912691e-05  2.7805188376604540e-05  2.8963737892296395e-05  3.0122287407988251e-05  3.1280836923680110e-05  3.2439386439371963e-05  3.3597935955063802e-05  3.4758496054054280e-05  3.5928949517457078e-05  3.7121424641272712e-05  3.8349083405198690e-05  3.9626812816389976e-05  4.0972111930273942e-05  4.2406300299188335e-05  4.3956247241925464e-05  4.5656955746939589e-05  4.7555587890288244e-05  4.9718016850638181e-05  5.2240027862966669e-05  5.5267602580664245e-05  5.9036324842907261e-05  6.3955023308299010e-05  7.0805194644709866e-05  8.1299269628431692e-05  1.0006529685436560e-04  1.4521047647121537e-04  3.8365261607841951e-04  1.4422614047497893e-02  2.7961146053129593e-01  2.7994451162794243e-01  2.7999663284608262e-01  2.8001710875071278e-01  2.8002826552540705e-01  2.8003544065188168e-01  2.8004054304087528e-01  2.8004442589600143e-01  2.8004752927591159e-01  2.8005010415186044e-01  2.8005230480960602e-01  2.8005423183933553e-01  2.8005595405053085e-01  2.8005752047876198e-01  2.8005896736332359e-01  2.8006032240990608e-01  2.8006160751262976e-01  2.8006284056647524e-01  2.8006403672689190e-01  2.8006520932839901e-01  2.8006637059480005e-01  2.8006752914431560e-01  2.8006868769383125e-01  2.8006984624334685e-01  2.8007100479286251e-01  2.8007216334237817e-01  2.8007332189189388e-01  2.8007448044140959e-01  2.8007563899092530e-01  2.8007679754044107e-01  2.8007795608995678e-01  2.8007911463947255e-01  2.8008027318898848e-01  2.8008143173850436e-01  2.8008259028802029e-01  2.8008374883753623e-01  2.8008490738705216e-01  2.8008606593656804e-01  2.8008722448608397e-01  2.8008838303559991e-01  2.8008954158511584e-01  2.8009070013463178e-01  2.8009185868414771e-01  2.8009301723366375e-01  2.8009417578317986e-01  2.8009533433269596e-01  2.8009649288221206e-01  2.8009765143172821e-01  2.8009880998124437e-01  2.8009996853076052e-01  </DataArray> 
</PointData> 
</Piece>
</UnstructuredGrid>
</VTKFile>