<?xml version="1.0"?>
<VTKFile type="UnstructuredGrid"  version="0.1"  >
<UnstructuredGrid>
<Piece  NumberOfPoints="101" NumberOfCells="100">
<Points>
<DataArray  type="Float64"  NumberOfComponents="3"  format="ascii">0 0 0  0.01 0 0  0.02 0 0  0.03 0 0  0.04 0 0  0.05 0 0  0.06 0 0  0.07000000000000001 0 0  0.08 0 0  0.09 0 0  0.1 0 0  0.11 0 0  0.12 0 0  0.13 0 0  0.14 0 0  0.15 0 0  0.16 0 0  0.17 0 0  0.18 0 0  0.19 0 0  0.2 0 0  0.21 0 0  0.22 0 0  0.23 0 0  0.24 0 0  0.25 0 0  0.26 0 0  0.27 0 0  0.28 0 0  0.29 0 0  0.3 0 0  0.31 0 0  0.32 0 0  0.33 0 0  0.34 0 0  0.35 0 0  0.36 0 0  0.37 0 0  0.38 0 0  0.39 0 0  0.4 0 0  0.41 0 0  0.42 0 0  0.43 0 0  0.44 0 0  0.45 0 0  0.46 0 0  0.47 0 0  0.48 0 0  0.49 0 0  0.5 0 0  0.51 0 0  0.52 0 0  0.53 0 0  0.54 0 0  0.55 0 0  0.5600000000000001 0 0  0.57 0 0  0.58 0 0  0.59 0 0  0.6 0 0  0.61 0 0  0.62 0 0  0.63 0 0  0.64 0 0  0.65 0 0  0.66 0 0  0.67 0 0  0.68 0 0  0.6899999999999999 0 0  0.7 0 0  0.71 0 0  0.72 0 0  0.73 0 0  0.74 0 0  0.75 0 0  0.76 0 0  0.77 0 0  0.78 0 0  0.79 0 0  0.8 0 0  0.8100000000000001 0 0  0.82 0 0  0.83 0 0  0.84 0 0  0.85 0 0  0.86 0 0  0.87 0 0  0.88 0 0  0.89 0 0  0.9 0 0  0.91 0 0  0.92 0 0  0.93 0 0  0.9399999999999999 0 0  0.95 0 0  0.96 0 0  0.97 0 0  0.98 0 0  0.99 0 0  1 0 0  </DataArray>
</Points>
<Cells>
<DataArray  type="UInt32"  Name="connectivity"  format="ascii">0 1  1 2  2 3  3 4  4 5  5 6  6 7  7 8  8 9  9 10  10 11  11 12  12 13  13 14  14 15  15 16  16 17  17 18  18 19  19 20  20 21  21 22  22 23  23 24  24 25  25 26  26 27  27 28  28 29  29 30  30 31  31 32  32 33  33 34  34 35  35 36  36 37  37 38  38 39  39 40  40 41  41 42  42 43  43 44  44 45  45 46  46 47  47 48  48 49  49 50  50 51  51 52  52 53  53 54  54 55  55 56  56 57  57 58  58 59  59 60  60 61  61 62  62 63  63 64  64 65  65 66  66 67  67 68  68 69  69 70  70 71  71 72  72 73  73 74  74 75  75 76  76 77  77 78  78 79  79 80  80 81  81 82  82 83  83 84  84 85  85 86  86 87  87 88  88 89  89 90  90 91  91 92  92 93  93 94  94 95  95 96  96 97  97 98  98 99  99 100  </DataArray>
<DataArray  type="UInt32"  Name="offsets"  format="ascii">2 4 6 8 10 12 14 16 18 20 22 24 26 28 30 32 34 36 38 40 42 44 46 48 50 52 54 56 58 60 62 64 66 68 70 72 74 76 78 80 82 84 86 88 90 92 94 96 98 100 102 104 106 108 110 112 114 116 118 120 122 124 126 128 130 132 134 136 138 140 142 144 146 148 150 152 154 156 158 160 162 164 166 168 170 172 174 176 178 180 182 184 186 188 190 192 194 196 198 200 </DataArray>
<DataArray  type="UInt8"  Name="types"  format="ascii">3 3 3 3 3 3 3 3 3 3 3 3 3 3 3 3 3 3 3 3 3 3 3 3 3 3 3 3 3 3 3 3 3 3 3 3 3 3 3 3 3 3 3 3 3 3 3 3 3 3 3 3 3 3 3 3 3 3 3 3 3 3 3 3 3 3 3 3 3 3 3 3 3 3 3 3 3 3 3 3 3 3 3 3 3 3 3 3 3 3 3 3 3 3 3 3 3 3 3 3 </DataArray>
</Cells>
<PointData  Scalars="displacement"> 
<DataArray  type="Float64"  Name="displacement"  format="ascii">0.0000000000000000e+00  1.8315318502695999e-06  3.6630637005391997e-06  5.4945955508087971e-06  7.3261274010783961e-06  9.1576592513479977e-06  1.0989191101617594e-05  1.2820722951887197e-05  1.4652254802156796e-05  1.6483786652426397e-05  1.8315318502695999e-05  2.0146850352965604e-05  2.1978382203235205e-05  2.3809914053504817e-05  2.5641445903774429e-05  2.7472977754044040e-05  2.9304509604313659e-05  3.1136041454583277e-05  3.2967573304852889e-05  3.4799105155122508e-05  3.6630637005392126e-05  3.8462168855661738e-05  4.0293700705931356e-05  4.2125232556200975e-05  4.3956764406470580e-05  4.5788296256740205e-05  4.7619828107009817e-05  4.9451359957279429e-05  5.1282891807549027e-05  5.3114423657818618e-05  5.4949134006114567e-05  5.6799484611285233e-05  5.8684648896748064e-05  6.0625434419454297e-05  6.2645375803854745e-05  6.4772137018498689e-05  6.7039421792584753e-05  6.9489707389705553e-05  7.2178329457876398e-05  7.5179845746467725e-05  7.8598394078828931e-05  8.2585399755536544e-05  8.7371642768397943e-05  9.3329553729153134e-05  1.0110544313156450e-04  1.1193476618811766e-04  1.2852467651260302e-04  1.5819157991361904e-04  2.2956085091540649e-04  6.0651010273588381e-04  2.2800473034908047e-02  2.3785668655024844e-01  2.3836015335809388e-01  2.3844100645093697e-01  2.3847301060959836e-01  2.3849050862559346e-01  2.3850178386700258e-01  2.3850981205418095e-01  2.3851592682567291e-01  2.3852081730209879e-01  2.3852487702456812e-01  2.3852834817283103e-01  2.3853138877155505e-01  2.3853410699298783e-01  2.3853657996982094e-01  2.3853886473730967e-01  2.3854100492273397e-01  2.3854303501995860e-01  2.3854498323744761e-01  2.3854687347897091e-01  2.3854872678927064e-01  2.3855056247291323e-01  2.3855239400476339e-01  2.3855422553661357e-01  2.3855605706846369e-01  2.3855788860031388e-01  2.3855972013216403e-01  2.3856155166401427e-01  2.3856338319586454e-01  2.3856521472771475e-01  2.3856704625956501e-01  2.3856887779141525e-01  2.3857070932326555e-01  2.3857254085511595e-01  2.3857437238696635e-01  2.3857620391881676e-01  2.3857803545066711e-01  2.3857986698251751e-01  2.3858169851436792e-01  2.3858353004621832e-01  2.3858536157806867e-01  2.3858719310991908e-01  2.3858902464176948e-01  2.3859085617361989e-01  2.3859268770547037e-01  2.3859451923732097e-01  2.3859635076917154e-01  2.3859818230102209e-01  2.3860001383287263e-01  2.3860184536472318e-01  2.3860367689657375e-01  </DataArray> 
</PointData> 
</Piece>
</UnstructuredGrid>
</VTKFile>