<?xml version="1.0"?>
<VTKFile type="UnstructuredGrid"  version="0.1"  >
<UnstructuredGrid>
<Piece  NumberOfPoints="101" NumberOfCells="100">
<Points>
<DataArray  type="Float64"  NumberOfComponents="3"  format="ascii">0 0 0  0.01 0 0  0.02 0 0  0.03 0 0  0.04 0 0  0.05 0 0  0.06 0 0  0.07000000000000001 0 0  0.08 0 0  0.09 0 0  0.1 0 0  0.11 0 0  0.12 0 0  0.13 0 0  0.14 0 0  0.15 0 0  0.16 0 0  0.17 0 0  0.18 0 0  0.19 0 0  0.2 0 0  0.21 0 0  0.22 0 0  0.23 0 0  0.24 0 0  0.25 0 0  0.26 0 0  0.27 0 0  0.28 0 0  0.29 0 0  0.3 0 0  0.31 0 0  0.32 0 0  0.33 0 0  0.34 0 0  0.35 0 0  0.36 0 0  0.37 0 0  0.38 0 0  0.39 0 0  0.4 0 0  0.41 0 0  0.42 0 0  0.43 0 0  0.44 0 0  0.45 0 0  0.46 0 0  0.47 0 0  0.48 0 0  0.49 0 0  0.5 0 0  0.51 0 0  0.52 0 0  0.53 0 0  0.54 0 0  0.55 0 0  0.5600000000000001 0 0  0.57 0 0  0.58 0 0  0.59 0 0  0.6 0 0  0.61 0 0  0.62 0 0  0.63 0 0  0.64 0 0  0.65 0 0  0.66 0 0  0.67 0 0  0.68 0 0  0.6899999999999999 0 0  0.7 0 0  0.71 0 0  0.72 0 0  0.73 0 0  0.74 0 0  0.75 0 0  0.76 0 0  0.77 0 0  0.78 0 0  0.79 0 0  0.8 0 0  0.8100000000000001 0 0  0.82 0 0  0.83 0 0  0.84 0 0  0.85 0 0  0.86 0 0  0.87 0 0  0.88 0 0  0.89 0 0  0.9 0 0  0.91 0 0  0.92 0 0  0.93 0 0  0.9399999999999999 0 0  0.95 0 0  0.96 0 0  0.97 0 0  0.98 0 0  0.99 0 0  1 0 0  </DataArray>
</Points>
<Cells>
<DataArray  type="UInt32"  Name="connectivity"  format="ascii">0 1  1 2  2 3  3 4  4 5  5 6  6 7  7 8  8 9  9 10  10 11  11 12  12 13  13 14  14 15  15 16  16 17  17 18  18 19  19 20  20 21  21 22  22 23  23 24  24 25  25 26  26 27  27 28  28 29  29 30  30 31  31 32  32 33  33 34  34 35  35 36  36 37  37 38  38 39  39 40  40 41  41 42  42 43  43 44  44 45  45 46  46 47  47 48  48 49  49 50  50 51  51 52  52 53  53 54  54 55  55 56  56 57  57 58  58 59  59 60  60 61  61 62  62 63  63 64  64 65  65 66  66 67  67 68  68 69  69 70  70 71  71 72  72 73  73 74  74 75  75 76  76 77  77 78  78 79  79 80  80 81  81 82  82 83  83 84  84 85  85 86  86 87  87 88  88 89  89 90  90 91  91 92  92 93  93 94  94 95  95 96  96 97  97 98  98 99  99 100  </DataArray>
<DataArray  type="UInt32"  Name="offsets"  format="ascii">2 4 6 8 10 12 14 16 18 20 22 24 26 28 30 32 34 36 38 40 42 44 46 48 50 52 54 56 58 60 62 64 66 68 70 72 74 76 78 80 82 84 86 88 90 92 94 96 98 100 102 104 106 108 110 112 114 116 118 120 122 124 126 128 130 132 134 136 138 140 142 144 146 148 150 152 154 156 158 160 162 164 166 168 170 172 174 176 178 180 182 184 186 188 190 192 194 196 198 200 </DataArray>
<DataArray  type="UInt8"  Name="types"  format="ascii">3 3 3 3 3 3 3 3 3 3 3 3 3 3 3 3 3 3 3 3 3 3 3 3 3 3 3 3 3 3 3 3 3 3 3 3 3 3 3 3 3 3 3 3 3 3 3 3 3 3 3 3 3 3 3 3 3 3 3 3 3 3 3 3 3 3 3 3 3 3 3 3 3 3 3 3 3 3 3 3 3 3 3 3 3 3 3 3 3 3 3 3 3 3 3 3 3 3 3 3 </DataArray>
</Cells>
<PointData  Scalars="displacement"> 
<DataArray  type="Float64"  Name="displacement"  format="ascii">0.0000000000000000e+00  1.0660080821738697e-06  2.1320161643477395e-06  3.1980242465216086e-06  4.2640323286954773e-06  5.3300404108693460e-06  6.3960484930432130e-06  7.4620565752170825e-06  8.5280646573909495e-06  9.5940727395648156e-06  1.0660080821738683e-05  1.1726088903912550e-05  1.2792096986086417e-05  1.3858105068260290e-05  1.4924113150434162e-05  1.5990121232608026e-05  1.7056129314781899e-05  1.8122137396955765e-05  1.9188145479129628e-05  2.0254153561303497e-05  2.1320161643477364e-05  2.2386169725651226e-05  2.3452177807825089e-05  2.4518185889998955e-05  2.5584193972172815e-05  2.6650202054346681e-05  2.7716210136520547e-05  2.8782218218694416e-05  2.9848226300868283e-05  3.0914234383042138e-05  3.1982092449197867e-05  3.3059053627720025e-05  3.4156277442983229e-05  3.5285874535529726e-05  3.6461542783379944e-05  3.7699383470305802e-05  3.9019013207244130e-05  4.0445155073016463e-05  4.2010016123158302e-05  4.3756991269642290e-05  4.5746691940729491e-05  4.8067252336344642e-05  5.0852993536645018e-05  5.4320681655801888e-05  5.8846489354881987e-05  6.5149489710053564e-05  7.4805329703137878e-05  9.2072383395869979e-05  1.3361150251933095e-04  3.5300760472245041e-04  1.3270579230725003e-02  2.9002208972312837e-01  2.9033078813839042e-01  2.9037889417454155e-01  2.9039776938803946e-01  2.9040804825170269e-01  2.9041465668165262e-01  2.9041935511686462e-01  2.9042293005289904e-01  2.9042578702093153e-01  2.9042815725044363e-01  2.9043018286714878e-01  2.9043195652083603e-01  2.9043354158223378e-01  2.9043498320672317e-01  2.9043631476303472e-01  2.9043756176010593e-01  2.9043874435440326e-01  2.9043987901921309e-01  2.9044097970463900e-01  2.9044205868344702e-01  2.9044312720492094e-01  2.9044419321300302e-01  2.9044525922108505e-01  2.9044632522916708e-01  2.9044739123724916e-01  2.9044845724533119e-01  2.9044952325341328e-01  2.9045058926149542e-01  2.9045165526957750e-01  2.9045272127765964e-01  2.9045378728574178e-01  2.9045485329382392e-01  2.9045591930190628e-01  2.9045698530998859e-01  2.9045805131807090e-01  2.9045911732615326e-01  2.9046018333423557e-01  2.9046124934231793e-01  2.9046231535040029e-01  2.9046338135848254e-01  2.9046444736656485e-01  2.9046551337464721e-01  2.9046657938272957e-01  2.9046764539081199e-01  2.9046871139889452e-01  2.9046977740697705e-01  2.9047084341505958e-01  2.9047190942314216e-01  2.9047297543122469e-01  2.9047404143930722e-01  </DataArray> 
</PointData> 
</Piece>
</UnstructuredGrid>
</VTKFile>